    -----------------------------------------------------------------------
          Psi4: An Open-Source Ab Initio Electronic Structure Package
                              Psi4 1.0.7 Driver

                          Git: Rev {master} 3eebe4e dirty

    J. M. Turney, A. C. Simmonett, R. M. Parrish, E. G. Hohenstein,
    F. A. Evangelista, J. T. Fermann, B. J. Mintz, L. A. Burns, J. J. Wilke,
    M. L. Abrams, N. J. Russ, M. L. Leininger, C. L. Janssen, E. T. Seidl,
    W. D. Allen, H. F. Schaefer, R. A. King, E. F. Valeev, C. D. Sherrill,
    and T. D. Crawford, WIREs Comput. Mol. Sci. 2, 556-565 (2012)
    (doi: 10.1002/wcms.93)

                         Additional Contributions by
    A. E. DePrince, U. Bozkaya, A. Yu. Sokolov, D. G. A. Smith, R. Di Remigio,
    R. M. Richard, J. F. Gonthier, H. R. McAlexander, M. Saitow, and
    B. P. Pritchard
    -----------------------------------------------------------------------


    Psi4 started on: Thu Jul 28 10:26:27 2016

    Process ID:  12760
    PSI4DATADIR: 
    Memory level set to 256.000 MB

  ==> Input File <==

--------------------------------------------------------------------------
#! H3+ FCI Energy
#! Change IOFF_MAX for aug-cc-pv6Z

molecule {
  1 1
  H     0.000000000000   0.952627944163     0.000000000000    
  H     0.825000000000  -0.476313972081     0.000000000000    
  H    -0.825000000000  -0.476313972081     0.000000000000    
units bohr
symmetry c2v
no_reorient
}

set {
    basis            cc-pVTZ
    reference        rhf
    print_mos        true
    print_basis      true
    molden_write     true
    puream           true
}

set {
    num_roots       1
    dipmom          true
    tdm             true
    tdm_print       true
    num_dets_print  -1          # ALL
}

set num_dets_print -1
set {
    reference_sym   0
    num_roots       2
}
thisenergy = prop('fci', properties=['DIPOLE', 'TRANSITION_DIPOLE'])

set {
    reference_sym   2
    num_roots       1
}
thisenergy = prop('fci', properties=['DIPOLE', 'TRANSITION_DIPOLE'])

--------------------------------------------------------------------------

 Input file to run:

from psi4 import *
import dependency_check
from p4const import *
from p4util import *
from molutil import *
from diatomic import anharmonicity
from driver import *
from gaussian_n import *
from qmmm import *
from aliases import *
from driver_cbs import *
from wrapper_database import database, db, DB_RGT, DB_RXN
from wrapper_autofrag import auto_fragments
psi4_io = psi4.IOManager.shared_object()
psi4.efp_init()
geometry("""
0 1
H
H 1 0.74
""","blank_molecule_psi4_yo")

psi4.set_memory(180000000000)

psi4.efp_init()
geometry("""
  1 1
 
 
 
 
  H     0.000000000000   0.952627944163     0.000000000000    
  H     0.825000000000  -0.476313972081     0.000000000000    
  H    -0.825000000000  -0.476313972081     0.000000000000    
units bohr
symmetry c2v
no_reorient
""")
psi4.IO.set_default_namespace("")
psi4.set_global_option("BASIS", "cc-pVTZ")
psi4.set_global_option("REFERENCE", "rhf")
psi4.set_global_option("PRINT_MOS", "true")
psi4.set_global_option("PRINT_BASIS", "true")
psi4.set_global_option("MOLDEN_WRITE", "true")
psi4.set_global_option("PUREAM", "true")
    
psi4.set_global_option("NUM_ROOTS", 1)
    
psi4.set_global_option("DIPMOM", "true")
    
psi4.set_global_option("TDM", "true")
    
psi4.set_global_option("TDM_PRINT", "true")
    
psi4.set_global_option("NUM_DETS_PRINT", -1)
psi4.set_global_option("NUM_DETS_PRINT", -1)
psi4.set_global_option("REFERENCE_SYM", 0)
psi4.set_global_option("NUM_ROOTS", 2)
thisenergy = prop('fci', properties=['DIPOLE', 'TRANSITION_DIPOLE'])
psi4.set_global_option("REFERENCE_SYM", 2)
psi4.set_global_option("NUM_ROOTS", 1)
thisenergy = prop('fci', properties=['DIPOLE', 'TRANSITION_DIPOLE'])

  Memory set to 180.000 GiB by Python script.

*** tstart() called on 
*** at Thu Jul 28 10:26:28 2016


         ---------------------------------------------------------
                                   SCF
            by Justin Turney, Rob Parrish, and Andy Simmonett
                              RHF Reference
                       20 Threads, 180000 MiB Core
         ---------------------------------------------------------

  ==> Geometry <==

    Molecular point group: c2v
    Full point group: D3h

    Geometry (in Bohr), charge = 1, multiplicity = 1:

       Center              X                  Y                   Z               Mass       
    ------------   -----------------  -----------------  -----------------  -----------------
           H          0.000000000000     0.952627944163     0.000000000000     1.007825032070
           H          0.825000000000    -0.476313972081     0.000000000000     1.007825032070
           H         -0.825000000000    -0.476313972081     0.000000000000     1.007825032070

  Running in c2v symmetry.

  Rotational constants: A =     43.88046  B =     43.88046  C =     21.94023 [cm^-1]
  Rotational constants: A = 1315503.17348  B = 1315503.17348  C = 657751.58674 [MHz]
  Nuclear repulsion =    1.818181818182024

  Charge       = 1
  Multiplicity = 1
  Electrons    = 2
  Nalpha       = 1
  Nbeta        = 1

  ==> Algorithm <==

  SCF Algorithm Type is PK.
  DIIS enabled.
  MOM disabled.
  Fractional occupation disabled.
  Guess Type is SAD.
  Energy threshold   = 1.00e-10
  Density threshold  = 1.00e-10
  Integral threshold = 0.00e+00

  ==> Primary Basis <==

  Basis Set: CC-PVTZ
    Number of shells: 18
    Number of basis function: 42
    Number of Cartesian functions: 45
    Spherical Harmonics?: true
    Max angular momentum: 2

  -AO BASIS SET INFORMATION:
    Name                   = CC-PVTZ
    Total number of shells = 18
    Number of primitives   = 24
    Number of AO           = 45
    Number of SO           = 42
    Maximum AM             = 2
    Spherical Harmonics    = TRUE

  -Contraction Scheme:
    Atom   Type   All Primitives // Shells:
   ------ ------ --------------------------
       1     H     5s 2p 1d // 3s 2p 1d 
       2     H     5s 2p 1d // 3s 2p 1d 
       3     H     5s 2p 1d // 3s 2p 1d 

  ==> AO Basis Functions <==

    [ CC-PVTZ ]
    spherical
    ****
    H   1
    S   3 1.00
                        33.87000000           0.00606800
                         5.09500000           0.04530800
                         1.15900000           0.20282200
    S   1 1.00
                         0.32580000           1.00000000
    S   1 1.00
                         0.10270000           1.00000000
    P   1 1.00
                         1.40700000           1.00000000
    P   1 1.00
                         0.38800000           1.00000000
    D   1 1.00
                         1.05700000           1.00000000
    ****
    H   2
    S   3 1.00
                        33.87000000           0.00606800
                         5.09500000           0.04530800
                         1.15900000           0.20282200
    S   1 1.00
                         0.32580000           1.00000000
    S   1 1.00
                         0.10270000           1.00000000
    P   1 1.00
                         1.40700000           1.00000000
    P   1 1.00
                         0.38800000           1.00000000
    D   1 1.00
                         1.05700000           1.00000000
    ****

  ==> Pre-Iterations <==

   -------------------------------------------------------
    Irrep   Nso     Nmo     Nalpha   Nbeta   Ndocc  Nsocc
   -------------------------------------------------------
     A1        17      17       0       0       0       0
     A2         5       5       0       0       0       0
     B1        13      13       0       0       0       0
     B2         7       7       0       0       0       0
   -------------------------------------------------------
    Total      42      42       1       1       1       0
   -------------------------------------------------------

  ==> Integral Setup <==

  Using in-core PK algorithm.
   Calculation information:
      Number of atoms:                   3
      Number of AO shells:              18
      Number of primitives:             24
      Number of atomic orbitals:        45
      Number of basis functions:        42

      Integral cutoff                 1.00e-12
      Number of threads:                20

  Performing in-core PK
  Using 816312 doubles for integral storage.
  We computed 48077 shell quartets total.
  Whereas there are 14706 unique shell quartets.
   226.92 percent of shell quartets recomputed by reordering.
  ==> DiskJK: Disk-Based J/K Matrices <==

    J tasked:                  Yes
    K tasked:                  Yes
    wK tasked:                  No
    Memory (MB):            128746
    Schwarz Cutoff:          1E-12

    OpenMP threads:             20
  Minimum eigenvalue in the overlap matrix is 1.8546072923E-03.
  Using Symmetric Orthogonalization.
  SCF Guess: Superposition of Atomic Densities via on-the-fly atomic UHF.

  ==> Iterations <==

                        Total Energy        Delta E     RMS |[F,P]|

   @RHF iter   0:    -0.70592555875543   -7.05926e-01   1.67532e-02 
   @RHF iter   1:    -1.29560923192703   -5.89684e-01   2.82200e-03 
   @RHF iter   2:    -1.29947592313035   -3.86669e-03   5.31180e-04 DIIS
   @RHF iter   3:    -1.29962670644918   -1.50783e-04   2.09259e-05 DIIS
   @RHF iter   4:    -1.29962687254957   -1.66100e-07   6.92639e-07 DIIS
   @RHF iter   5:    -1.29962687271003   -1.60455e-10   6.43490e-08 DIIS
   @RHF iter   6:    -1.29962687271153   -1.50280e-12   3.97467e-09 DIIS
   @RHF iter   7:    -1.29962687271154   -7.54952e-15   1.02674e-10 DIIS
   @RHF iter   8:    -1.29962687271153    1.77636e-15   3.26210e-12 DIIS

  ==> Post-Iterations <==

    Orbital Energies (a.u.)
    -----------------------

    Doubly Occupied:                                                      

       1A1    -1.207652  

    Virtual:                                                              

       1B1    -0.192356     2A1    -0.192356     3A1    -0.034698  
       1B2     0.193909     2B1     0.206214     4A1     0.206214  
       5A1     0.574371     3B1     0.574371     1A2     0.690716  
       2B2     0.690716     6A1     0.702426     4B1     1.021267  
       7A1     1.193455     5B1     1.193455     8A1     1.947249  
       6B1     1.947249     9A1     1.976928     3B2     2.579857  
      10A1     2.751562     4B2     2.984823     2A2     2.984823  
       7B1     3.001065    11A1     3.001065    12A1     3.038167  
       8B1     3.394874     5B2     3.496687     3A2     3.496687  
       6B2     3.671778     9B1     3.858567    13A1     3.858567  
      10B1     4.167940    14A1     4.167940     4A2     4.217861  
      15A1     4.913089    11B1     4.913089     5A2     4.930815  
       7B2     4.930815    16A1     5.311440    12B1     5.887863  
      17A1     5.887863    13B1     6.570713  

    Final Occupation by Irrep:
             A1    A2    B1    B2 
    DOCC [     1,    0,    0,    0 ]

  Energy converged.

  @RHF Final Energy:    -1.29962687271153

   => Energetics <=

    Nuclear Repulsion Energy =              1.8181818181820240
    One-Electron Energy =                  -3.8203143502948298
    Two-Electron Energy =                   0.7025056594012711
    DFT Exchange-Correlation Energy =       0.0000000000000000
    Empirical Dispersion Energy =           0.0000000000000000
    PCM Polarization Energy =               0.0000000000000000
    EFP Energy =                            0.0000000000000000
    Total Energy =                         -1.2996268727115348


  Saving occupied orbitals to File 180.

  ==> Molecular Orbitals <==

                 1            2            3            4            5

    1    0.1708120    0.0000000    0.1412192    0.0486960    0.0000000
    2    0.2252776    0.0000000    0.2911312    0.4807637    0.0000000
    3    0.0282734    0.0000000    1.5484562   -0.6017517    0.0000000
    4    0.0000000    0.0000000    0.0000000    0.0000000    0.0308485
    5    0.0000000    0.0135448    0.0000000    0.0000000    0.0000000
    6   -0.0185006    0.0000000    0.0140148   -0.0204153    0.0000000
    7    0.0000000    0.0000000    0.0000000    0.0000000   -0.4085045
    8    0.0000000    0.0607391    0.0000000    0.0000000    0.0000000
    9   -0.0283318    0.0000000    0.0145121    0.0204049    0.0000000
   10   -0.0018225    0.0000000    0.0015424    0.0060061    0.0000000
   11    0.0000000    0.0000000    0.0000000    0.0000000    0.0000000
   12    0.0000000    0.0000000    0.0000000    0.0000000   -0.0065244
   13   -0.0020080    0.0000000    0.0007362    0.0006872    0.0000000
   14    0.0000000   -0.0056685    0.0000000    0.0000000    0.0000000
   15    0.1708120    0.1222994   -0.0706096    0.0486960    0.0000000
   16    0.2252776    0.2521270   -0.1455656    0.4807637    0.0000000
   17    0.0282734    1.3410024   -0.7742281   -0.6017517    0.0000000
   18    0.0000000    0.0000000    0.0000000    0.0000000    0.0308485
   19   -0.0160220    0.0138973   -0.0002035   -0.0176801    0.0000000
   20    0.0092503   -0.0002035    0.0136623    0.0102076    0.0000000
   21    0.0000000    0.0000000    0.0000000    0.0000000   -0.4085045
   22   -0.0245360    0.0260688    0.0200169    0.0176712    0.0000000
   23    0.0141659    0.0200169    0.0491824   -0.0102025    0.0000000
   24   -0.0018225    0.0013358   -0.0007712    0.0060061    0.0000000
   25    0.0000000    0.0000000    0.0000000    0.0000000   -0.0056503
   26    0.0000000    0.0000000    0.0000000    0.0000000    0.0032622
   27    0.0010040   -0.0027733   -0.0040673   -0.0003436    0.0000000
   28   -0.0017390   -0.0008650   -0.0027733    0.0005951    0.0000000
   29    0.1708120   -0.1222994   -0.0706096    0.0486960    0.0000000
   30    0.2252776   -0.2521270   -0.1455656    0.4807637    0.0000000
   31    0.0282734   -1.3410024   -0.7742281   -0.6017517    0.0000000
   32    0.0000000    0.0000000    0.0000000    0.0000000    0.0308485
   33    0.0160220    0.0138973    0.0002035    0.0176801    0.0000000
   34    0.0092503    0.0002035    0.0136623    0.0102076    0.0000000
   35    0.0000000    0.0000000    0.0000000    0.0000000   -0.4085045
   36    0.0245360    0.0260688   -0.0200169   -0.0176712    0.0000000
   37    0.0141659   -0.0200169    0.0491824   -0.0102025    0.0000000
   38   -0.0018225   -0.0013358   -0.0007712    0.0060061    0.0000000
   39    0.0000000    0.0000000    0.0000000    0.0000000    0.0056503
   40    0.0000000    0.0000000    0.0000000    0.0000000    0.0032622
   41    0.0010040    0.0027733   -0.0040673   -0.0003436    0.0000000
   42    0.0017390   -0.0008650    0.0027733   -0.0005951    0.0000000

 Ene    -1.2076515   -0.1923557   -0.1923557   -0.0346985    0.1939092
 Sym            A1           B1           A1           A1           B2
 Occ             2            0            0            0            0


                 6            7            8            9           10

    1    0.0000000    0.1382941    0.0234589    0.0000000    0.0000000
    2    0.0000000    1.1314787    1.6550001    0.0000000    0.0000000
    3    0.0000000   -2.7594429   -0.0650329    0.0000000    0.0000000
    4    0.0000000    0.0000000    0.0000000    0.0000000    0.0000000
    5    0.0066075    0.0000000    0.0000000    0.0764082    0.0000000
    6    0.0000000   -0.0312570   -0.0362574    0.0000000    0.0000000
    7    0.0000000    0.0000000    0.0000000    0.0000000    0.0000000
    8   -0.1725132    0.0000000    0.0000000   -1.0403677    0.0000000
    9    0.0000000    0.1934390   -0.0528833    0.0000000    0.0000000
   10    0.0000000   -0.0091345   -0.0213040    0.0000000    0.0000000
   11    0.0000000    0.0000000    0.0000000    0.0000000    0.0301015
   12    0.0000000    0.0000000    0.0000000    0.0000000    0.0000000
   13    0.0000000   -0.0084886    0.0321981    0.0000000    0.0000000
   14   -0.0085034    0.0000000    0.0000000    0.0382403    0.0000000
   15   -0.1197662   -0.0691471   -0.0117294    0.0203160    0.0000000
   16   -0.9798893   -0.5657393   -0.8275000    1.4332721    0.0000000
   17    2.3897477    1.3797215    0.0325165   -0.0563202    0.0000000
   18    0.0000000    0.0000000    0.0000000    0.0000000    0.0717637
   19    0.0250946    0.0106735    0.0487856   -0.0080910    0.0000000
   20   -0.0106735   -0.0127699    0.0482418    0.0487856    0.0000000
   21    0.0000000    0.0000000    0.0000000    0.0000000   -1.2135612
   22   -0.1882075   -0.0090611   -0.4275933   -0.2997544    0.0000000
   23    0.0090611    0.1777446   -0.7934966   -0.4275933    0.0000000
   24    0.0079107    0.0045673    0.0106520   -0.0184498    0.0000000
   25    0.0000000    0.0000000    0.0000000    0.0000000    0.0571862
   26    0.0000000    0.0000000    0.0000000    0.0000000   -0.0156374
   27   -0.0073578    0.0042554    0.0367297    0.0026163    0.0000000
   28    0.0042406    0.0073578    0.0026163    0.0337086    0.0000000
   29    0.1197662   -0.0691471   -0.0117294   -0.0203160    0.0000000
   30    0.9798893   -0.5657393   -0.8275000   -1.4332721    0.0000000
   31   -2.3897477    1.3797215    0.0325165    0.0563202    0.0000000
   32    0.0000000    0.0000000    0.0000000    0.0000000   -0.0717637
   33    0.0250946   -0.0106735   -0.0487856   -0.0080910    0.0000000
   34    0.0106735   -0.0127699    0.0482418   -0.0487856    0.0000000
   35    0.0000000    0.0000000    0.0000000    0.0000000    1.2135612
   36   -0.1882075    0.0090611    0.4275933   -0.2997544    0.0000000
   37   -0.0090611    0.1777446   -0.7934966    0.4275933    0.0000000
   38   -0.0079107    0.0045673    0.0106520    0.0184498    0.0000000
   39    0.0000000    0.0000000    0.0000000    0.0000000    0.0571862
   40    0.0000000    0.0000000    0.0000000    0.0000000    0.0156374
   41    0.0073578    0.0042554    0.0367297   -0.0026163    0.0000000
   42    0.0042406   -0.0073578   -0.0026163    0.0337086    0.0000000

 Ene     0.2062141    0.2062141    0.5743713    0.5743713    0.6907158
 Sym            B1           A1           A1           B1           A2
 Occ             0            0            0            0            0


                11           12           13           14           15

    1    0.0000000    0.0133167    0.0000000    0.0161122    0.0000000
    2    0.0000000   -0.7621226    0.0000000   11.2859099    0.0000000
    3    0.0000000    0.4192447    0.0000000    0.7377184    0.0000000
    4    0.0828656    0.0000000    0.0000000    0.0000000    0.0000000
    5    0.0000000    0.0000000    0.0105728    0.0000000    0.0283483
    6    0.0000000    0.0768094    0.0000000   -0.0478926    0.0000000
    7   -1.4012998    0.0000000    0.0000000    0.0000000    0.0000000
    8    0.0000000    0.0000000    2.2591936    0.0000000    2.1742531
    9    0.0000000   -0.7798791    0.0000000   -6.0471990    0.0000000
   10    0.0000000   -0.0211451    0.0000000   -0.2026910    0.0000000
   11    0.0000000    0.0000000    0.0000000    0.0000000    0.0000000
   12    0.0662144    0.0000000    0.0000000    0.0000000    0.0000000
   13    0.0000000   -0.0188417    0.0000000   -0.1856225    0.0000000
   14    0.0000000    0.0000000   -0.2233635    0.0000000   -0.1486616
   15    0.0000000    0.0133167   -0.0000000   -0.0080561   -0.0139536
   16    0.0000000   -0.7621226   -0.0000000   -5.6429549   -9.7738847
   17    0.0000000    0.4192447    0.0000000   -0.3688592   -0.6388828
   18   -0.0414328    0.0000000    0.0000000    0.0000000    0.0000000
   19    0.0000000    0.0665189   -0.0052864    0.0084630    0.0430065
   20    0.0000000   -0.0384047   -0.0091563   -0.0332343   -0.0084630
   21    0.7006499    0.0000000    0.0000000    0.0000000    0.0000000
   22    0.0000000   -0.6753951   -1.1295968    1.6770348    5.0789625
   23    0.0000000    0.3899395   -1.9565191   -3.1424896   -1.6770348
   24    0.0000000   -0.0211451    0.0000000    0.1013455    0.1755356
   25   -0.0156374    0.0000000    0.0000000    0.0000000    0.0000000
   26    0.0391297    0.0000000    0.0000000    0.0000000    0.0000000
   27    0.0000000    0.0094209    0.1934384    0.0650906   -0.1447493
   28    0.0000000   -0.0163174    0.1116817    0.1447493    0.1020514
   29    0.0000000    0.0133167    0.0000000   -0.0080561    0.0139536
   30    0.0000000   -0.7621226    0.0000000   -5.6429549    9.7738847
   31    0.0000000    0.4192447   -0.0000000   -0.3688592    0.6388828
   32   -0.0414328    0.0000000    0.0000000    0.0000000    0.0000000
   33    0.0000000   -0.0665189   -0.0052864   -0.0084630    0.0430065
   34    0.0000000   -0.0384047    0.0091563   -0.0332343    0.0084630
   35    0.7006499    0.0000000    0.0000000    0.0000000    0.0000000
   36    0.0000000    0.6753951   -1.1295968   -1.6770348    5.0789625
   37    0.0000000    0.3899395    1.9565191   -3.1424896    1.6770348
   38    0.0000000   -0.0211451   -0.0000000    0.1013455   -0.1755356
   39    0.0156374    0.0000000    0.0000000    0.0000000    0.0000000
   40    0.0391297    0.0000000    0.0000000    0.0000000    0.0000000
   41    0.0000000    0.0094209   -0.1934384    0.0650906    0.1447493
   42    0.0000000    0.0163174    0.1116817   -0.1447493    0.1020514

 Ene     0.6907158    0.7024262    1.0212672    1.1934550    1.1934550
 Sym            B2           A1           B1           A1           B1
 Occ             0            0            0            0            0


                16           17           18           19           20

    1    1.0608582    0.0000000    0.7063574    0.0000000    0.0757092
    2   -8.0629078    0.0000000   -0.6128376    0.0000000    0.1709115
    3    1.2862297    0.0000000    0.2193347    0.0000000   -0.1030441
    4    0.0000000    0.0000000    0.0000000    0.4097394    0.0000000
    5    0.0000000    0.2018012    0.0000000    0.0000000    0.0000000
    6    0.3624624    0.0000000   -0.1414528    0.0000000   -0.2535622
    7    0.0000000    0.0000000    0.0000000   -0.2690144    0.0000000
    8    0.0000000    1.0680366    0.0000000    0.0000000    0.0000000
    9    2.9982441    0.0000000    0.2749687    0.0000000    0.3953002
   10    0.2821412    0.0000000   -0.1675020    0.0000000    0.3097714
   11    0.0000000    0.0000000    0.0000000    0.0000000    0.0000000
   12    0.0000000    0.0000000    0.0000000   -0.2866682    0.0000000
   13    0.2652285    0.0000000   -0.0446336    0.0000000   -0.2980064
   14    0.0000000   -0.3297133    0.0000000    0.0000000    0.0000000
   15   -0.5304291    0.9187301    0.7063574    0.0000000    0.0757092
   16    4.0314539   -6.9826830   -0.6128376    0.0000000    0.1709115
   17   -0.6431148    1.1139076    0.2193347    0.0000000   -0.1030441
   18    0.0000000    0.0000000    0.0000000    0.4097394    0.0000000
   19   -0.0695683    0.3222971   -0.1225017    0.0000000   -0.2195913
   20    0.2419665   -0.0695683    0.0707264    0.0000000    0.1267811
   21    0.0000000    0.0000000    0.0000000   -0.2690144    0.0000000
   22   -0.8358044    2.5156922    0.2381299    0.0000000    0.3423400
   23    1.5505885   -0.8358044   -0.1374844    0.0000000   -0.1976501
   24   -0.1410706    0.2443414   -0.1675020    0.0000000    0.3097714
   25    0.0000000    0.0000000    0.0000000   -0.2482620    0.0000000
   26    0.0000000    0.0000000    0.0000000    0.1433341    0.0000000
   27   -0.1809778   -0.2576173    0.0223168    0.0000000    0.1490032
   28   -0.2576173    0.1164930   -0.0386538    0.0000000   -0.2580811
   29   -0.5304291   -0.9187301    0.7063574    0.0000000    0.0757092
   30    4.0314539    6.9826830   -0.6128376    0.0000000    0.1709115
   31   -0.6431148   -1.1139076    0.2193347    0.0000000   -0.1030441
   32    0.0000000    0.0000000    0.0000000    0.4097394    0.0000000
   33    0.0695683    0.3222971    0.1225017    0.0000000    0.2195913
   34    0.2419665    0.0695683    0.0707264    0.0000000    0.1267811
   35    0.0000000    0.0000000    0.0000000   -0.2690144    0.0000000
   36    0.8358044    2.5156922   -0.2381299    0.0000000   -0.3423400
   37    1.5505885    0.8358044   -0.1374844    0.0000000   -0.1976501
   38   -0.1410706   -0.2443414   -0.1675020    0.0000000    0.3097714
   39    0.0000000    0.0000000    0.0000000    0.2482620    0.0000000
   40    0.0000000    0.0000000    0.0000000    0.1433341    0.0000000
   41   -0.1809778    0.2576173    0.0223168    0.0000000    0.1490032
   42    0.2576173    0.1164930    0.0386538    0.0000000    0.2580811

 Ene     1.9472491    1.9472491    1.9769283    2.5798567    2.7515618
 Sym            A1           B1           A1           B2           A1
 Occ             0            0            0            0            0


                21           22           23           24           25

    1    0.0000000    0.0000000    0.0000000    0.2047731    0.1950144
    2    0.0000000    0.0000000    0.0000000    0.4343238   -0.4064699
    3    0.0000000    0.0000000    0.0000000    0.0021370    0.1768527
    4    0.2032509    0.0000000    0.0000000    0.0000000    0.0000000
    5    0.0000000    0.0000000    0.7913117    0.0000000    0.0000000
    6    0.0000000    0.0000000    0.0000000    0.3085117    0.6293605
    7   -0.5662526    0.0000000    0.0000000    0.0000000    0.0000000
    8    0.0000000    0.0000000   -0.5498082    0.0000000    0.0000000
    9    0.0000000    0.0000000    0.0000000   -0.7872049   -0.5098665
   10    0.0000000    0.0000000    0.0000000    0.0995066   -0.0175505
   11    0.0000000    0.7275946    0.0000000    0.0000000    0.0000000
   12   -0.0582127    0.0000000    0.0000000    0.0000000    0.0000000
   13    0.0000000    0.0000000    0.0000000   -0.4457891   -0.2120591
   14    0.0000000    0.0000000    0.0618838    0.0000000    0.0000000
   15    0.0000000    0.0000000   -0.1773387   -0.1023865    0.1950144
   16    0.0000000    0.0000000   -0.3761354   -0.2171619   -0.4064699
   17    0.0000000    0.0000000   -0.0018507   -0.0010685    0.1768527
   18   -0.1016254    0.1760204    0.0000000    0.0000000    0.0000000
   19    0.0000000    0.0000000   -0.0335559   -0.4762375    0.5450422
   20    0.0000000    0.0000000    0.4762375   -0.5163559   -0.3146803
   21    0.2831263   -0.4903891    0.0000000    0.0000000    0.0000000
   22    0.0000000    0.0000000    0.4529517    0.5789437   -0.4415573
   23    0.0000000    0.0000000   -0.5789437    0.2155549    0.2549332
   24    0.0000000    0.0000000   -0.0861752   -0.0497533   -0.0175505
   25    0.3402645    0.1382391    0.0000000    0.0000000    0.0000000
   26    0.5311428    0.3402645    0.0000000    0.0000000    0.0000000
   27    0.0000000    0.0000000   -0.1662359   -0.1578601    0.1060296
   28    0.0000000    0.0000000    0.3498128    0.1662359   -0.1836486
   29    0.0000000    0.0000000    0.1773387   -0.1023865    0.1950144
   30    0.0000000    0.0000000    0.3761354   -0.2171619   -0.4064699
   31    0.0000000    0.0000000    0.0018507   -0.0010685    0.1768527
   32   -0.1016254   -0.1760204    0.0000000    0.0000000    0.0000000
   33    0.0000000    0.0000000   -0.0335559    0.4762375   -0.5450422
   34    0.0000000    0.0000000   -0.4762375   -0.5163559   -0.3146803
   35    0.2831263    0.4903891    0.0000000    0.0000000    0.0000000
   36    0.0000000    0.0000000    0.4529517   -0.5789437    0.4415573
   37    0.0000000    0.0000000    0.5789437    0.2155549    0.2549332
   38    0.0000000    0.0000000    0.0861752   -0.0497533   -0.0175505
   39   -0.3402645    0.1382391    0.0000000    0.0000000    0.0000000
   40    0.5311428   -0.3402645    0.0000000    0.0000000    0.0000000
   41    0.0000000    0.0000000    0.1662359   -0.1578601    0.1060296
   42    0.0000000    0.0000000    0.3498128   -0.1662359    0.1836486

 Ene     2.9848231    2.9848231    3.0010652    3.0010652    3.0381670
 Sym            B2           A2           B1           A1           A1
 Occ             0            0            0            0            0


                26           27           28           29           30

    1    0.0000000    0.0000000    0.0000000    0.0000000    0.0000000
    2    0.0000000    0.0000000    0.0000000    0.0000000    0.0000000
    3    0.0000000    0.0000000    0.0000000    0.0000000    0.0000000
    4    0.0000000    0.8186946    0.0000000    0.6128133    0.0000000
    5    0.1198090    0.0000000    0.0000000    0.0000000    0.1568599
    6    0.0000000    0.0000000    0.0000000    0.0000000    0.0000000
    7    0.0000000   -1.0302909    0.0000000   -0.2230655    0.0000000
    8   -1.8456064    0.0000000    0.0000000    0.0000000    1.2035150
    9    0.0000000    0.0000000    0.0000000    0.0000000    0.0000000
   10    0.0000000    0.0000000    0.0000000    0.0000000    0.0000000
   11    0.0000000    0.0000000    0.0278927    0.0000000    0.0000000
   12    0.0000000    0.6730457    0.0000000    0.3787282    0.0000000
   13    0.0000000    0.0000000    0.0000000    0.0000000    0.0000000
   14    0.9713258    0.0000000    0.0000000    0.0000000   -0.2035002
   15    0.0000000    0.0000000    0.0000000    0.0000000   -0.1472373
   16   -0.0000000    0.0000000    0.0000000    0.0000000   -5.6909474
   17   -0.0000000    0.0000000    0.0000000    0.0000000   -0.2237587
   18    0.0000000   -0.4093473    0.7090103    0.6128133    0.0000000
   19   -0.0599045    0.0000000    0.0000000    0.0000000   -0.1191112
   20   -0.1037576    0.0000000    0.0000000    0.0000000    0.1593320
   21    0.0000000    0.5151454   -0.8922581   -0.2230655    0.0000000
   22    0.9228032    0.0000000    0.0000000    0.0000000    2.9295605
   23    1.5983421    0.0000000    0.0000000    0.0000000   -0.9965328
   24    0.0000000    0.0000000    0.0000000    0.0000000    0.9512417
   25    0.0000000   -0.2793594    0.5117575    0.3279883    0.0000000
   26    0.0000000    0.1891810   -0.2793594   -0.1893641    0.0000000
   27   -0.8411928    0.0000000    0.0000000    0.0000000   -0.1155684
   28   -0.4856629    0.0000000    0.0000000    0.0000000   -0.0033298
   29   -0.0000000    0.0000000    0.0000000    0.0000000    0.1472373
   30    0.0000000    0.0000000    0.0000000    0.0000000    5.6909474
   31    0.0000000    0.0000000    0.0000000    0.0000000    0.2237587
   32    0.0000000   -0.4093473   -0.7090103    0.6128133    0.0000000
   33   -0.0599045    0.0000000    0.0000000    0.0000000   -0.1191112
   34    0.1037576    0.0000000    0.0000000    0.0000000   -0.1593320
   35    0.0000000    0.5151454    0.8922581   -0.2230655    0.0000000
   36    0.9228032    0.0000000    0.0000000    0.0000000    2.9295605
   37   -1.5983421    0.0000000    0.0000000    0.0000000    0.9965328
   38   -0.0000000    0.0000000    0.0000000    0.0000000   -0.9512417
   39    0.0000000    0.2793594    0.5117575   -0.3279883    0.0000000
   40    0.0000000    0.1891810    0.2793594   -0.1893641    0.0000000
   41    0.8411928    0.0000000    0.0000000    0.0000000    0.1155684
   42   -0.4856629    0.0000000    0.0000000    0.0000000   -0.0033298

 Ene     3.3948738    3.4966872    3.4966872    3.6717778    3.8585665
 Sym            B1           B2           A2           B2           B1
 Occ             0            0            0            0            0


                31           32           33           34           35

    1    0.1700149    0.0000000    0.4358563    0.0000000    0.4668821
    2    6.5713400    0.0000000    2.9931389    0.0000000   -0.5231301
    3    0.2583743    0.0000000    0.3508545    0.0000000    0.0307336
    4    0.0000000    0.0000000    0.0000000    0.0000000    0.0000000
    5    0.0000000    0.6150797    0.0000000    0.0000000    0.0000000
    6    0.2111016    0.0000000    0.0309185    0.0000000   -0.0380367
    7    0.0000000    0.0000000    0.0000000    0.0000000    0.0000000
    8    0.0000000   -0.7922857    0.0000000    0.0000000    0.0000000
    9   -3.5049089    0.0000000   -1.7674780    0.0000000    0.6400602
   10   -1.0983993    0.0000000    0.0381637    0.0000000    0.1631370
   11    0.0000000    0.0000000    0.0000000    0.8892833    0.0000000
   12    0.0000000    0.0000000    0.0000000    0.0000000    0.0000000
   13   -0.0633937    0.0000000   -0.8296958    0.0000000    1.0299101
   14    0.0000000    0.5387210    0.0000000    0.0000000    0.0000000
   15   -0.0850075    0.3774626   -0.2179282    0.0000000   -0.2334411
   16   -3.2856700    2.5921344   -1.4965695    0.0000000    0.2615651
   17   -0.1291871    0.3038489   -0.1754272    0.0000000   -0.0153668
   18    0.0000000    0.0000000    0.0000000   -0.0000000    0.0000000
   19   -0.1593320    0.1769588    0.2529492    0.0000000    0.0448843
   20   -0.0648695    0.2529492    0.4690394    0.0000000    0.0397051
   21    0.0000000    0.0000000    0.0000000    0.0000000    0.0000000
   22    0.9965328   -1.5236799    0.4222707    0.0000000   -0.4672525
   23   -1.7788635    0.4222707   -1.0360838    0.0000000   -0.1692448
   24    0.5491996    0.0330508   -0.0190819    0.0000000   -0.0815685
   25    0.0000000    0.0000000    0.0000000   -0.4446417    0.0000000
   26    0.0000000    0.0000000    0.0000000   -0.7701419    0.0000000
   27    0.1367767    0.5925419    0.1966168    0.0000000    0.9411402
   28    0.1155684   -0.4875916    0.5925419    0.0000000   -0.0512513
   29   -0.0850075   -0.3774626   -0.2179282    0.0000000   -0.2334411
   30   -3.2856700   -2.5921344   -1.4965695    0.0000000    0.2615651
   31   -0.1291871   -0.3038489   -0.1754272    0.0000000   -0.0153668
   32    0.0000000    0.0000000    0.0000000    0.0000000    0.0000000
   33    0.1593320    0.1769588   -0.2529492    0.0000000   -0.0448843
   34   -0.0648695   -0.2529492    0.4690394    0.0000000    0.0397051
   35    0.0000000    0.0000000    0.0000000   -0.0000000    0.0000000
   36   -0.9965328   -1.5236799   -0.4222707    0.0000000    0.4672525
   37   -1.7788635   -0.4222707   -1.0360838    0.0000000   -0.1692448
   38    0.5491996   -0.0330508   -0.0190819    0.0000000   -0.0815685
   39    0.0000000    0.0000000    0.0000000   -0.4446417    0.0000000
   40    0.0000000    0.0000000    0.0000000    0.7701419    0.0000000
   41    0.1367767   -0.5925419    0.1966168    0.0000000    0.9411402
   42   -0.1155684   -0.4875916   -0.5925419    0.0000000    0.0512513

 Ene     3.8585665    4.1679398    4.1679398    4.2178612    4.9130893
 Sym            A1           B1           A1           A2           A1
 Occ             0            0            0            0            0


                36           37           38           39           40

    1    0.0000000    0.0000000    0.0000000    1.1258355    0.0000000
    2    0.0000000    0.0000000    0.0000000   -0.3863132    0.0000000
    3    0.0000000    0.0000000    0.0000000    0.0037899    0.0000000
    4    0.0000000    0.0000000    0.7622944    0.0000000    0.0000000
    5    0.0656190    0.0000000    0.0000000    0.0000000    0.5436184
    6    0.0000000    0.0000000    0.0000000   -0.3995159    0.0000000
    7    0.0000000    0.0000000    0.5698406    0.0000000    0.0000000
    8   -0.4390132    0.0000000    0.0000000    0.0000000    0.8152045
    9    0.0000000    0.0000000    0.0000000    0.7683491    0.0000000
   10    0.0000000    0.0000000    0.0000000    0.6294734    0.0000000
   11    0.0000000    0.5420877    0.0000000    0.0000000    0.0000000
   12    0.0000000    0.0000000   -1.3111338    0.0000000    0.0000000
   13    0.0000000    0.0000000    0.0000000    0.4125052    0.0000000
   14    0.9115502    0.0000000    0.0000000    0.0000000   -0.5649567
   15    0.4043318    0.0000000    0.0000000    1.1258355   -0.7132575
   16   -0.4530440    0.0000000    0.0000000   -0.3863132   -5.0527286
   17    0.0266161    0.0000000    0.0000000    0.0037899    0.4822460
   18    0.0000000   -0.6601663   -0.3811472    0.0000000    0.0000000
   19   -0.0121228    0.0000000    0.0000000   -0.3459909    1.4421626
   20    0.0448843    0.0000000    0.0000000    0.1997580   -0.5187747
   21    0.0000000   -0.4934965   -0.2849203    0.0000000    0.0000000
   22    0.3702918    0.0000000    0.0000000    0.6654099    2.0191576
   23   -0.4672525    0.0000000    0.0000000   -0.3841746   -0.6951027
   24    0.1412808    0.0000000    0.0000000    0.6294734    0.6877952
   25    0.0000000    1.1188723    0.3330067    0.0000000    0.0000000
   26    0.0000000   -0.3330067   -0.7343493    0.0000000    0.0000000
   27   -0.0512513    0.0000000    0.0000000   -0.2062526   -0.5611897
   28    1.0003201    0.0000000    0.0000000    0.3572400    0.4070524
   29   -0.4043318    0.0000000    0.0000000    1.1258355    0.7132575
   30    0.4530440    0.0000000    0.0000000   -0.3863132    5.0527286
   31   -0.0266161    0.0000000    0.0000000    0.0037899   -0.4822460
   32    0.0000000    0.6601663   -0.3811472    0.0000000    0.0000000
   33   -0.0121228    0.0000000    0.0000000    0.3459909    1.4421626
   34   -0.0448843    0.0000000    0.0000000    0.1997580    0.5187747
   35    0.0000000    0.4934965   -0.2849203    0.0000000    0.0000000
   36    0.3702918    0.0000000    0.0000000   -0.6654099    2.0191576
   37    0.4672525    0.0000000    0.0000000   -0.3841746    0.6951027
   38   -0.1412808    0.0000000    0.0000000    0.6294734   -0.6877952
   39    0.0000000    1.1188723   -0.3330067    0.0000000    0.0000000
   40    0.0000000    0.3330067   -0.7343493    0.0000000    0.0000000
   41    0.0512513    0.0000000    0.0000000   -0.2062526    0.5611897
   42    1.0003201    0.0000000    0.0000000   -0.3572400    0.4070524

 Ene     4.9130893    4.9308155    4.9308155    5.3114398    5.8878632
 Sym            B1           A2           B2           A1           B1
 Occ             0            0            0            0            0


                41           42

    1    0.8235989    0.0000000
    2    5.8343885    0.0000000
    3   -0.5568497    0.0000000
    4    0.0000000    0.0000000
    5    0.0000000    1.4057505
    6   -1.7416773    0.0000000
    7    0.0000000    0.0000000
    8    0.0000000    1.2249219
    9   -2.4204753    0.0000000
   10   -0.7941975    0.0000000
   11    0.0000000    0.0000000
   12    0.0000000    0.0000000
   13   -0.7310555    0.0000000
   14    0.0000000   -1.4379406
   15   -0.4117994   -0.0000000
   16   -2.9171942   -0.0000000
   17    0.2784249    0.0000000
   18    0.0000000    0.0000000
   19    0.5187747   -0.7028752
   20   -0.8431331   -1.2174156
   21    0.0000000    0.0000000
   22    0.6951027   -0.6124609
   23   -1.2165222   -1.0608135
   24    0.3970987    0.0000000
   25    0.0000000    0.0000000
   26    0.0000000    0.0000000
   27    0.2409536    1.2452931
   28    0.5611897    0.7189703
   29   -0.4117994    0.0000000
   30   -2.9171942    0.0000000
   31    0.2784249   -0.0000000
   32    0.0000000    0.0000000
   33   -0.5187747   -0.7028752
   34   -0.8431331    1.2174156
   35    0.0000000    0.0000000
   36   -0.6951027   -0.6124609
   37   -1.2165222    1.0608135
   38    0.3970987   -0.0000000
   39    0.0000000    0.0000000
   40    0.0000000    0.0000000
   41    0.2409536   -1.2452931
   42   -0.5611897    0.7189703

 Ene     5.8878632    6.5707131
 Sym            A1           B1
 Occ             0            0


*** tstop() called on  at Thu Jul 28 10:26:29 2016
Module time:
	user time   =      24.71 seconds =       0.41 minutes
	system time =       0.51 seconds =       0.01 minutes
	total time  =          1 seconds =       0.02 minutes
Total time:
	user time   =      24.71 seconds =       0.41 minutes
	system time =       0.51 seconds =       0.01 minutes
	total time  =          1 seconds =       0.02 minutes


Properties will be evaluated at   0.000000,   0.000000,   0.000000 Bohr

Properties computed using the SCF density matrix

  Nuclear Dipole Moment: (a.u.)
     X:     0.0000      Y:     0.0000      Z:     0.0000

  Electronic Dipole Moment: (a.u.)
     X:     0.0000      Y:    -0.0000      Z:     0.0000

  Dipole Moment: (a.u.)
     X:     0.0000      Y:    -0.0000      Z:     0.0000     Total:     0.0000

  Dipole Moment: (Debye)
     X:     0.0000      Y:    -0.0000      Z:     0.0000     Total:     0.0000

 MINTS: Wrapper to libmints.
   by Justin Turney

   Calculation information:
      Number of atoms:                   3
      Number of AO shells:              18
      Number of SO shells:              12
      Number of primitives:             24
      Number of atomic orbitals:        45
      Number of basis functions:        42

      Number of irreps:                  4
      Integral cutoff                 0.00e+00
      Number of functions per irrep: [  17    5   13    7 ]

 OEINTS: Overlap, kinetic, potential, dipole, and quadrupole integrals
         stored in file 35.

      Computing two-electron integrals...done
      Computed 105726 non-zero two-electron integrals.
        Stored in file 33.


         ---------------------------------------------------------
                                 D E T C I  

                             C. David Sherrill
                             Matt L. Leininger
                               18 June 1999
         ---------------------------------------------------------


DETCI PARAMETERS: 
   EX LEVEL      =        2      H0 BLOCKSIZE =     1000
   VAL EX LEVEL  =        0      H0 GUESS SIZE=     1000
   H0COUPLINGSIZE=        0      H0 COUPLING  =       no
   MAXITER       =       24      NUM PRINT    =       -1
   NUM ROOTS     =        2      ICORE        =        1
   PRINT         =        1      FCI          =      yes
   R CONV        = 1.00e-04      MIXED        =      yes
   E CONV        = 1.00e-08      MIXED4       =      yes
   R4S           =       no      REPL OTF     =       no
   DIAG METHOD   =      SEM
   PRECONDITIONER= DAVIDSON      UPDATE       = DAVIDSON
   S             =   0.0000      Ms0          =      yes
   MAX NUM VECS  =       50
   RESTART       =       no
   GUESS VECTOR  =  H0BLOCK      OPENTYPE     =     NONE
   REF SYM       =        0
   COLLAPSE SIZE =        1      HD AVG       = EVANGELISTI
   LSE           =       no      LSE ITER     =        0
   HD OTF        =      yes      NO DFILE     =       no
   MPN           =       no      MPN SCHMIDT  =       no
   ZAPTN         =       no      MPN WIGNER   =       no
   PERT Z        =   1.0000      FOLLOW ROOT  =        0
   NUM THREADS   =       20
   FILTER GUESS  =       no      SF RESTRICT  =       no
   OPDM          =      yes      TRANS DENSITY=      yes

   FILES         =  50 51 52 53

   EX ALLOW      =  1  1 
   STATE AVERAGE =  1(1.00) 

ORBITALS:
   NMO          =       42
   FROZEN CORE  =        0      RESTR CORE   =        0
   FROZEN VIRT  =        0      RESTR VIRT   =        0
   DROPPED CORE =        0      DROPPED VIRT =        0
   EXPLICIT CORE=        0      ORBS IN CI   =       42
   NUM ALP      =        1      NUM BET      =        1
   NUM ALP EXPL =        1      NUM BET EXPL =        1
   IOPEN        =       no

   DOCC            =   1   0   0   0 
   SOCC            =   0   0   0   0 

   FROZEN DOCC     =   0   0   0   0 
   RESTRICTED DOCC =   0   0   0   0 
   ACTIVE          =  17   5  13   7 
   RESTRICTED UOCC =   0   0   0   0 
   FROZEN UOCC     =   0   0   0   0 
         ---------------------------------------------------------


   ==> Setting up CI strings <==

   There are 42 alpha and 42 beta strings
   The CI space requires 532 (5.32E+02) determinants and 4 blocks


   ==> Transforming CI integrals <==
	Presorting SO-basis two-electron integrals.
	Sorting File: SO Ints (nn|nn) nbuckets = 1
	Transforming the one-electron integrals and constructing Fock matrices
	Starting first half-transformation.
	Sorting half-transformed integrals.
	First half integral transformation complete.
	Starting second half-transformation.
	Two-electron integral transformation complete.

*** H0 Block Eigenvalue =  -1.32365635

Find the roots by the Simultaneous Expansion Method (Block Davidson Method)
Using 2 initial trial vectors
(sem_iter): H0block_->H0b_diag[1][1] - H0block_->H0b_diag[2][1] = -0.666852 - 0.666852 = -1.333704 > 1.0E-8
Iter  0  Root  1 =  -1.323656349   Delta_E -3.142E+00   Delta_C  3.056E-01  
Iter  0  Root  2 =  -0.610032972   Delta_E -2.428E+00   Delta_C  2.768E-01  

Iter  1  Root  1 =  -1.341215538   Delta_E -1.756E-02   Delta_C  3.854E-02  
Iter  1  Root  2 =  -0.629205794   Delta_E -1.917E-02   Delta_C  4.644E-02  

Iter  2  Root  1 =  -1.341529952   Delta_E -3.144E-04   Delta_C  4.715E-03  
Iter  2  Root  2 =  -0.629990392   Delta_E -7.846E-04   Delta_C  9.617E-03  

Iter  3  Root  1 =  -1.341539587   Delta_E -9.635E-06   Delta_C  1.269E-03  
Iter  3  Root  2 =  -0.630027948   Delta_E -3.756E-05   Delta_C  2.253E-03  

Iter  4  Root  1 =  -1.341540071   Delta_E -4.845E-07   Delta_C  1.906E-04  
Iter  4  Root  2 =  -0.630029302   Delta_E -1.354E-06   Delta_C  3.799E-04  

Iter  5  Root  1 =  -1.341540080   Delta_E -8.566E-09   Delta_C  2.062E-05 c
Iter  5  Root  2 =  -0.630029365   Delta_E -6.272E-08   Delta_C  1.332E-04  

Iter  6  Root  1 =  -1.341540080   Delta_E  1.776E-15   Delta_C  2.062E-05 c
Iter  6  Root  2 =  -0.630029372   Delta_E -6.964E-09   Delta_C  3.160E-05 c


* ROOT 1 CI total energy =  -1.3415400796154  (0.0000 eV,      0.00 1/cm)


The 532 most important determinants

    1   -0.991198  (    0,    0)  1A1X  
    2    0.048166  (   22,   22)  1B1X  
    3    0.048166  (    1,    1)  2A1X  
    4   -0.036711  (   22,   23)  1B1A  2B1B  
    5   -0.036711  (   23,   22)  1B1B  2B1A  
    6    0.036711  (    1,    3)  2A1A  4A1B  
    7    0.036711  (    3,    1)  2A1B  4A1A  
    8    0.032701  (   35,   35)  1B2X  
    9    0.029671  (    3,    3)  4A1X  
   10    0.029671  (   23,   23)  2B1X  
   11    0.015142  (    2,    2)  3A1X  
*  12    0.013265  (    1,    7)  2A1A  8A1B  
*  13    0.013265  (    7,    1)  2A1B  8A1A  
*  14    0.013265  (   22,   27)  1B1A  6B1B  
*  15    0.013265  (   27,   22)  1B1B  6B1A  
*  16   -0.012666  (   35,   37)  1B2A  3B2B  
*  17   -0.012666  (   37,   35)  1B2B  3B2A  
*  18    0.012629  (    3,    7)  4A1A  8A1B  
*  19    0.012629  (    7,    3)  4A1B  8A1A  
*  20   -0.012629  (   23,   27)  2B1A  6B1B  
*  21   -0.012629  (   27,   23)  2B1B  6B1A  
*  22    0.011812  (    5,    5)  6A1X  
   23    0.011139  (    2,    5)  3A1A  6A1B  
   24    0.011139  (    5,    2)  3A1B  6A1A  
*  25    0.011079  (    8,    8)  9A1X  
*  26    0.010724  (   37,   37)  3B2X  
*  27    0.009130  (    7,    7)  8A1X  
*  28    0.009130  (   27,   27)  6B1X  
*  29    0.009094  (    2,    8)  3A1A  9A1B  
*  30    0.009094  (    8,    2)  3A1B  9A1A  
*  31   -0.009009  (   22,   26)  1B1A  5B1B  
*  32   -0.009009  (   26,   22)  1B1B  5B1A  
*  33    0.009009  (    1,    6)  2A1A  7A1B  
*  34    0.009009  (    6,    1)  2A1B  7A1A  
*  35    0.008053  (   23,   26)  2B1A  5B1B  
*  36    0.008053  (   26,   23)  2B1B  5B1A  
*  37    0.008053  (    3,    6)  4A1A  7A1B  
*  38    0.008053  (    6,    3)  4A1B  7A1A  
*  39    0.006649  (   24,   24)  3B1X  
*  40    0.006649  (    4,    4)  5A1X  
*  41    0.005933  (    5,    8)  6A1A  9A1B  
*  42    0.005933  (    8,    5)  6A1B  9A1A  
*  43    0.005538  (    9,    9)  10A1X  
*  44    0.005342  (   28,   28)  7B1X  
*  45    0.005342  (   10,   10)  11A1X  
*  46    0.005338  (    5,    9)  6A1A  10A1B  
*  47    0.005338  (    9,    5)  6A1B  10A1A  
   48   -0.004966  (    0,    2)  1A1A  3A1B  
   49   -0.004966  (    2,    0)  1A1B  3A1A  
*  50    0.004667  (   11,   11)  12A1X  
*  51   -0.004657  (    5,   11)  6A1A  12A1B  
*  52   -0.004657  (   11,    5)  6A1B  12A1A  
   53   -0.004595  (   22,   24)  1B1A  3B1B  
   54   -0.004595  (   24,   22)  1B1B  3B1A  
   55   -0.004595  (    1,    4)  2A1A  5A1B  
   56   -0.004595  (    4,    1)  2A1B  5A1A  
*  57    0.004453  (   17,   17)  1A2X  
*  58    0.004453  (   36,   36)  2B2X  
*  59   -0.004338  (   26,   27)  5B1A  6B1B  
*  60   -0.004338  (   27,   26)  5B1B  6B1A  
*  61    0.004338  (    6,    7)  7A1A  8A1B  
*  62    0.004338  (    7,    6)  7A1B  8A1A  
*  63   -0.004071  (   24,   28)  3B1A  7B1B  
*  64   -0.004071  (   28,   24)  3B1B  7B1A  
*  65    0.004071  (    4,   10)  5A1A  11A1B  
*  66    0.004071  (   10,    4)  5A1B  11A1A  
*  67    0.003809  (   22,   28)  1B1A  7B1B  
*  68    0.003809  (   28,   22)  1B1B  7B1A  
*  69   -0.003809  (    1,   10)  2A1A  11A1B  
*  70   -0.003809  (   10,    1)  2A1B  11A1A  
*  71    0.003684  (    2,    9)  3A1A  10A1B  
*  72    0.003684  (    9,    2)  3A1B  10A1A  
*  73   -0.003666  (    2,   11)  3A1A  12A1B  
*  74   -0.003666  (   11,    2)  3A1B  12A1A  
*  75   -0.003416  (   23,   28)  2B1A  7B1B  
*  76   -0.003416  (   28,   23)  2B1B  7B1A  
*  77   -0.003416  (    3,   10)  4A1A  11A1B  
*  78   -0.003416  (   10,    3)  4A1B  11A1A  
*  79    0.003392  (   26,   26)  5B1X  
*  80    0.003392  (    6,    6)  7A1X  
*  81    0.003326  (   18,   18)  2A2X  
*  82    0.003326  (   38,   38)  4B2X  
*  83    0.003099  (   23,   24)  2B1A  3B1B  
*  84    0.003099  (   24,   23)  2B1B  3B1A  
*  85   -0.003099  (    3,    4)  4A1A  5A1B  
*  86   -0.003099  (    4,    3)  4A1B  5A1A  
*  87   -0.002889  (    8,   11)  9A1A  12A1B  
*  88   -0.002889  (   11,    8)  9A1B  12A1A  
*  89    0.002675  (    7,   16)  8A1A  17A1B  
*  90    0.002675  (   16,    7)  8A1B  17A1A  
*  91   -0.002675  (   27,   33)  6B1A  12B1B  
*  92   -0.002675  (   33,   27)  6B1B  12B1A  
*  93    0.002669  (   16,   16)  17A1X  
*  94    0.002669  (   33,   33)  12B1X  
*  95   -0.002632  (    0,    8)  1A1A  9A1B  
*  96   -0.002632  (    8,    0)  1A1B  9A1A  
*  97    0.002290  (    8,    9)  9A1A  10A1B  
*  98    0.002290  (    9,    8)  9A1B  10A1A  
*  99    0.002269  (   39,   39)  5B2X  
* 100    0.002269  (   19,   19)  3A2X  
* 101    0.002189  (   15,   15)  16A1X  
* 102   -0.002077  (   17,   18)  1A2A  2A2B  
* 103   -0.002077  (   18,   17)  1A2B  2A2A  
* 104   -0.002077  (   36,   38)  2B2A  4B2B  
* 105   -0.002077  (   38,   36)  2B2B  4B2A  
* 106    0.002021  (    3,   16)  4A1A  17A1B  
* 107    0.002021  (   16,    3)  4A1B  17A1A  
* 108    0.002021  (   23,   33)  2B1A  12B1B  
* 109    0.002021  (   33,   23)  2B1B  12B1A  
* 110   -0.002014  (    9,   11)  10A1A  12A1B  
* 111   -0.002014  (   11,    9)  10A1B  12A1A  
* 112   -0.001869  (   28,   32)  7B1A  11B1B  
* 113   -0.001869  (   32,   28)  7B1B  11B1A  
* 114    0.001869  (   10,   14)  11A1A  15A1B  
* 115    0.001869  (   14,   10)  11A1B  15A1A  
* 116    0.001869  (   40,   40)  6B2X  
* 117    0.001815  (   11,   15)  12A1A  16A1B  
* 118    0.001815  (   15,   11)  12A1B  16A1A  
* 119    0.001804  (   41,   41)  7B2X  
* 120    0.001804  (   21,   21)  5A2X  
* 121    0.001726  (   32,   32)  11B1X  
* 122    0.001726  (   14,   14)  15A1X  
* 123   -0.001725  (   22,   33)  1B1A  12B1B  
* 124   -0.001725  (   33,   22)  1B1B  12B1A  
* 125    0.001725  (    1,   16)  2A1A  17A1B  
* 126    0.001725  (   16,    1)  2A1B  17A1A  
* 127   -0.001691  (   36,   39)  2B2A  5B2B  
* 128   -0.001691  (   39,   36)  2B2B  5B2A  
* 129   -0.001691  (   17,   19)  1A2A  3A2B  
* 130   -0.001691  (   19,   17)  1A2B  3A2A  
* 131   -0.001635  (    9,   15)  10A1A  16A1B  
* 132   -0.001635  (   15,    9)  10A1B  16A1A  
* 133    0.001625  (   12,   12)  13A1X  
* 134    0.001625  (   30,   30)  9B1X  
* 135    0.001605  (   29,   29)  8B1X  
* 136   -0.001519  (    5,   15)  6A1A  16A1B  
* 137   -0.001519  (   15,    5)  6A1B  16A1A  
* 138   -0.001433  (    0,   11)  1A1A  12A1B  
* 139   -0.001433  (   11,    0)  1A1B  12A1A  
* 140    0.001374  (   27,   28)  6B1A  7B1B  
* 141    0.001374  (   28,   27)  6B1B  7B1A  
* 142   -0.001374  (    7,   10)  8A1A  11A1B  
* 143   -0.001374  (   10,    7)  8A1B  11A1A  
* 144   -0.001341  (   26,   28)  5B1A  7B1B  
* 145   -0.001341  (   28,   26)  5B1B  7B1A  
* 146   -0.001341  (    6,   10)  7A1A  11A1B  
* 147   -0.001341  (   10,    6)  7A1B  11A1A  
* 148    0.001324  (   34,   34)  13B1X  
* 149    0.001206  (   26,   33)  5B1A  12B1B  
* 150    0.001206  (   33,   26)  5B1B  12B1A  
* 151    0.001206  (    6,   16)  7A1A  17A1B  
* 152    0.001206  (   16,    6)  7A1B  17A1A  
* 153    0.001186  (   31,   31)  10B1X  
* 154    0.001186  (   13,   13)  14A1X  
* 155    0.001154  (   39,   41)  5B2A  7B2B  
* 156    0.001154  (   41,   39)  5B2B  7B2A  
* 157   -0.001154  (   19,   21)  3A2A  5A2B  
* 158   -0.001154  (   21,   19)  3A2B  5A2A  
* 159    0.001115  (   25,   25)  4B1X  
* 160    0.001114  (    0,    9)  1A1A  10A1B  
* 161    0.001114  (    9,    0)  1A1B  10A1A  
* 162   -0.001070  (   36,   41)  2B2A  7B2B  
* 163   -0.001070  (   41,   36)  2B2B  7B2A  
* 164    0.001070  (   17,   21)  1A2A  5A2B  
* 165    0.001070  (   21,   17)  1A2B  5A2A  
* 166   -0.001059  (   35,   40)  1B2A  6B2B  
* 167   -0.001059  (   40,   35)  1B2B  6B2A  
* 168   -0.001023  (   26,   30)  5B1A  9B1B  
* 169   -0.001023  (   30,   26)  5B1B  9B1A  
* 170   -0.001023  (    6,   12)  7A1A  13A1B  
* 171   -0.001023  (   12,    6)  7A1B  13A1A  
* 172   -0.001020  (    0,   15)  1A1A  16A1B  
* 173   -0.001020  (   15,    0)  1A1B  16A1A  
* 174    0.000993  (   25,   29)  4B1A  8B1B  
* 175    0.000993  (   29,   25)  4B1B  8B1A  
* 176    0.000985  (   20,   20)  4A2X  
* 177    0.000984  (   24,   32)  3B1A  11B1B  
* 178    0.000984  (   32,   24)  3B1B  11B1A  
* 179    0.000984  (    4,   14)  5A1A  15A1B  
* 180    0.000984  (   14,    4)  5A1B  15A1A  
* 181   -0.000925  (    4,    6)  5A1A  7A1B  
* 182   -0.000925  (    6,    4)  5A1B  7A1A  
* 183    0.000925  (   24,   26)  3B1A  5B1B  
* 184    0.000925  (   26,   24)  3B1B  5B1A  
* 185    0.000909  (   29,   34)  8B1A  13B1B  
* 186    0.000909  (   34,   29)  8B1B  13B1A  
* 187   -0.000859  (   18,   21)  2A2A  5A2B  
* 188   -0.000859  (   21,   18)  2A2B  5A2A  
* 189    0.000859  (   38,   41)  4B2A  7B2B  
* 190    0.000859  (   41,   38)  4B2B  7B2A  
* 191   -0.000832  (    2,   15)  3A1A  16A1B  
* 192   -0.000832  (   15,    2)  3A1B  16A1A  
* 193   -0.000830  (    8,   15)  9A1A  16A1B  
* 194   -0.000830  (   15,    8)  9A1B  16A1A  
* 195   -0.000762  (   22,   32)  1B1A  11B1B  
* 196   -0.000762  (   32,   22)  1B1B  11B1A  
* 197   -0.000762  (    1,   14)  2A1A  15A1B  
* 198   -0.000762  (   14,    1)  2A1B  15A1A  
* 199    0.000756  (   23,   32)  2B1A  11B1B  
* 200    0.000756  (   32,   23)  2B1B  11B1A  
* 201   -0.000756  (    3,   14)  4A1A  15A1B  
* 202   -0.000756  (   14,    3)  4A1B  15A1A  
* 203   -0.000721  (   23,   30)  2B1A  9B1B  
* 204   -0.000721  (   30,   23)  2B1B  9B1A  
* 205   -0.000721  (    3,   12)  4A1A  13A1B  
* 206   -0.000721  (   12,    3)  4A1B  13A1A  
  207    0.000717  (    0,    5)  1A1A  6A1B  
  208    0.000717  (    5,    0)  1A1B  6A1A  
* 209    0.000623  (   22,   30)  1B1A  9B1B  
* 210    0.000623  (   30,   22)  1B1B  9B1A  
* 211   -0.000623  (    1,   12)  2A1A  13A1B  
* 212   -0.000623  (   12,    1)  2A1B  13A1A  
* 213   -0.000568  (   30,   33)  9B1A  12B1B  
* 214   -0.000568  (   33,   30)  9B1B  12B1A  
* 215   -0.000568  (   12,   16)  13A1A  17A1B  
* 216   -0.000568  (   16,   12)  13A1B  17A1A  
* 217    0.000552  (   18,   19)  2A2A  3A2B  
* 218    0.000552  (   19,   18)  2A2B  3A2A  
* 219    0.000552  (   38,   39)  4B2A  5B2B  
* 220    0.000552  (   39,   38)  4B2B  5B2A  
* 221    0.000540  (   26,   32)  5B1A  11B1B  
* 222    0.000540  (   32,   26)  5B1B  11B1A  
* 223   -0.000540  (    6,   14)  7A1A  15A1B  
* 224   -0.000540  (   14,    6)  7A1B  15A1A  
* 225    0.000402  (   22,   31)  1B1A  10B1B  
* 226    0.000402  (   31,   22)  1B1B  10B1A  
* 227    0.000402  (    1,   13)  2A1A  14A1B  
* 228    0.000402  (   13,    1)  2A1B  14A1A  
* 229    0.000390  (   25,   34)  4B1A  13B1B  
* 230    0.000390  (   34,   25)  4B1B  13B1A  
* 231   -0.000388  (    7,   12)  8A1A  13A1B  
* 232   -0.000388  (   12,    7)  8A1B  13A1A  
* 233    0.000388  (   27,   30)  6B1A  9B1B  
* 234    0.000388  (   30,   27)  6B1B  9B1A  
* 235   -0.000373  (   30,   32)  9B1A  11B1B  
* 236   -0.000373  (   32,   30)  9B1B  11B1A  
* 237    0.000373  (   12,   14)  13A1A  15A1B  
* 238    0.000373  (   14,   12)  13A1B  15A1A  
* 239    0.000370  (   37,   40)  3B2A  6B2B  
* 240    0.000370  (   40,   37)  3B2B  6B2A  
* 241   -0.000345  (   27,   32)  6B1A  11B1B  
* 242   -0.000345  (   32,   27)  6B1B  11B1A  
* 243   -0.000345  (    7,   14)  8A1A  15A1B  
* 244   -0.000345  (   14,    7)  8A1B  15A1A  
* 245   -0.000311  (   24,   31)  3B1A  10B1B  
* 246   -0.000311  (   31,   24)  3B1B  10B1A  
* 247   -0.000311  (    4,   13)  5A1A  14A1B  
* 248   -0.000311  (   13,    4)  5A1B  14A1A  
* 249    0.000290  (    3,   13)  4A1A  14A1B  
* 250    0.000290  (   13,    3)  4A1B  14A1A  
* 251   -0.000290  (   23,   31)  2B1A  10B1B  
* 252   -0.000290  (   31,   23)  2B1B  10B1A  
* 253    0.000270  (   28,   30)  7B1A  9B1B  
* 254    0.000270  (   30,   28)  7B1B  9B1A  
* 255    0.000270  (   10,   12)  11A1A  13A1B  
* 256    0.000270  (   12,   10)  11A1B  13A1A  
* 257    0.000266  (   28,   31)  7B1A  10B1B  
* 258    0.000266  (   31,   28)  7B1B  10B1A  
* 259   -0.000266  (   10,   13)  11A1A  14A1B  
* 260   -0.000266  (   13,   10)  11A1B  14A1A  
* 261    0.000252  (    4,   16)  5A1A  17A1B  
* 262    0.000252  (   16,    4)  5A1B  17A1A  
* 263   -0.000252  (   24,   33)  3B1A  12B1B  
* 264   -0.000252  (   33,   24)  3B1B  12B1A  
* 265    0.000209  (   31,   33)  10B1A  12B1B  
* 266    0.000209  (   33,   31)  10B1B  12B1A  
* 267   -0.000209  (   13,   16)  14A1A  17A1B  
* 268   -0.000209  (   16,   13)  14A1B  17A1A  
* 269    0.000154  (    4,   12)  5A1A  13A1B  
* 270    0.000154  (   12,    4)  5A1B  13A1A  
* 271   -0.000154  (   24,   30)  3B1A  9B1B  
* 272   -0.000154  (   30,   24)  3B1B  9B1A  
* 273    0.000151  (   32,   33)  11B1A  12B1B  
* 274    0.000151  (   33,   32)  11B1B  12B1A  
* 275   -0.000151  (   14,   16)  15A1A  17A1B  
* 276   -0.000151  (   16,   14)  15A1B  17A1A  
* 277    0.000141  (   26,   31)  5B1A  10B1B  
* 278    0.000141  (   31,   26)  5B1B  10B1A  
* 279   -0.000141  (    6,   13)  7A1A  14A1B  
* 280   -0.000141  (   13,    6)  7A1B  14A1A  
* 281    0.000140  (    7,   13)  8A1A  14A1B  
* 282    0.000140  (   13,    7)  8A1B  14A1A  
* 283    0.000140  (   27,   31)  6B1A  10B1B  
* 284    0.000140  (   31,   27)  6B1B  10B1A  
* 285   -0.000126  (   10,   16)  11A1A  17A1B  
* 286   -0.000126  (   16,   10)  11A1B  17A1A  
* 287   -0.000126  (   28,   33)  7B1A  12B1B  
* 288   -0.000126  (   33,   28)  7B1B  12B1A  
* 289    0.000052  (   12,   13)  13A1A  14A1B  
* 290    0.000052  (   13,   12)  13A1B  14A1A  
* 291   -0.000052  (   30,   31)  9B1A  10B1B  
* 292   -0.000052  (   31,   30)  9B1B  10B1A  
* 293    0.000051  (    4,    7)  5A1A  8A1B  
* 294    0.000051  (    7,    4)  5A1B  8A1A  
* 295    0.000051  (   24,   27)  3B1A  6B1B  
* 296    0.000051  (   27,   24)  3B1B  6B1A  
* 297    0.000007  (   13,   14)  14A1A  15A1B  
* 298    0.000007  (   14,   13)  14A1B  15A1A  
* 299    0.000007  (   31,   32)  10B1A  11B1B  
* 300    0.000007  (   32,   31)  10B1B  11B1A  



* ROOT 2 CI total energy =  -0.6300293719140  (19.3612 eV, 156158.53 1/cm)


The 532 most important determinants

    1    0.691736  (    1,    0)  1A1B  2A1A  
    2    0.691736  (    0,    1)  1A1A  2A1B  
    3    0.085814  (    3,    0)  1A1B  4A1A  
    4    0.085814  (    0,    3)  1A1A  4A1B  
    5    0.056925  (    1,    2)  2A1A  3A1B  
    6    0.056925  (    2,    1)  2A1B  3A1A  
    7    0.043950  (    1,    5)  2A1A  6A1B  
    8    0.043950  (    5,    1)  2A1B  6A1A  
    9    0.042790  (   22,   22)  1B1X  
   10   -0.042790  (    1,    1)  2A1X  
   11    0.029315  (   24,   22)  1B1B  3B1A  
   12    0.029315  (   22,   24)  1B1A  3B1B  
   13   -0.029315  (    4,    1)  2A1B  5A1A  
   14   -0.029315  (    1,    4)  2A1A  5A1B  
   15   -0.028385  (   22,   23)  1B1A  2B1B  
   16   -0.028385  (   23,   22)  1B1B  2B1A  
   17   -0.028385  (    1,    3)  2A1A  4A1B  
   18   -0.028385  (    3,    1)  2A1B  4A1A  
*  19   -0.023493  (   35,   36)  1B2A  2B2B  
*  20   -0.023493  (   36,   35)  1B2B  2B2A  
   21   -0.020009  (    3,    3)  4A1X  
   22    0.020009  (   23,   23)  2B1X  
*  23   -0.019774  (   23,   24)  2B1A  3B1B  
*  24   -0.019774  (   24,   23)  2B1B  3B1A  
*  25   -0.019774  (    3,    4)  4A1A  5A1B  
*  26   -0.019774  (    4,    3)  4A1B  5A1A  
*  27    0.017509  (    1,    8)  2A1A  9A1B  
*  28    0.017509  (    8,    1)  2A1B  9A1A  
*  29    0.011835  (    1,    9)  2A1A  10A1B  
*  30    0.011835  (    9,    1)  2A1B  10A1A  
*  31   -0.010535  (    1,    7)  2A1A  8A1B  
*  32   -0.010535  (    7,    1)  2A1B  8A1A  
*  33    0.010535  (   22,   27)  1B1A  6B1B  
*  34    0.010535  (   27,   22)  1B1B  6B1A  
*  35   -0.010110  (    1,   11)  2A1A  12A1B  
*  36   -0.010110  (   11,    1)  2A1B  12A1A  
*  37   -0.008734  (    3,    7)  4A1A  8A1B  
*  38   -0.008734  (    7,    3)  4A1B  8A1A  
*  39   -0.008734  (   23,   27)  2B1A  6B1B  
*  40   -0.008734  (   27,   23)  2B1B  6B1A  
   41    0.008709  (    0,    4)  1A1A  5A1B  
   42    0.008709  (    4,    0)  1A1B  5A1A  
*  43   -0.008220  (   24,   24)  3B1X  
*  44    0.008220  (    4,    4)  5A1X  
*  45   -0.007952  (    7,    8)  8A1A  9A1B  
*  46   -0.007952  (    8,    7)  8A1B  9A1A  
*  47    0.006767  (    3,    5)  4A1A  6A1B  
*  48    0.006767  (    5,    3)  4A1B  6A1A  
*  49   -0.006705  (   22,   28)  1B1A  7B1B  
*  50   -0.006705  (   28,   22)  1B1B  7B1A  
*  51   -0.006705  (    1,   10)  2A1A  11A1B  
*  52   -0.006705  (   10,    1)  2A1B  11A1A  
*  53   -0.006687  (    2,    7)  3A1A  8A1B  
*  54   -0.006687  (    7,    2)  3A1B  8A1A  
*  55    0.006177  (   35,   38)  1B2A  4B2B  
*  56    0.006177  (   38,   35)  1B2B  4B2A  
*  57    0.005987  (   23,   28)  2B1A  7B1B  
*  58    0.005987  (   28,   23)  2B1B  7B1A  
*  59   -0.005987  (    3,   10)  4A1A  11A1B  
*  60   -0.005987  (   10,    3)  4A1B  11A1A  
*  61   -0.005765  (    3,    8)  4A1A  9A1B  
*  62   -0.005765  (    8,    3)  4A1B  9A1A  
*  63    0.005630  (   27,   27)  6B1X  
*  64   -0.005630  (    7,    7)  8A1X  
*  65    0.005271  (   36,   37)  2B2A  3B2B  
*  66    0.005271  (   37,   36)  2B2B  3B2A  
*  67    0.005135  (   24,   25)  3B1A  4B1B  
*  68    0.005135  (   25,   24)  3B1B  4B1A  
*  69   -0.004523  (    4,    7)  5A1A  8A1B  
*  70   -0.004523  (    7,    4)  5A1B  8A1A  
*  71    0.004523  (   24,   27)  3B1A  6B1B  
*  72    0.004523  (   27,   24)  3B1B  6B1A  
*  73    0.004494  (    0,   10)  1A1A  11A1B  
*  74    0.004494  (   10,    0)  1A1B  11A1A  
*  75    0.004323  (   35,   39)  1B2A  5B2B  
*  76    0.004323  (   39,   35)  1B2B  5B2A  
*  77   -0.004312  (   22,   26)  1B1A  5B1B  
*  78   -0.004312  (   26,   22)  1B1B  5B1A  
*  79   -0.004312  (    1,    6)  2A1A  7A1B  
*  80   -0.004312  (    6,    1)  2A1B  7A1A  
*  81   -0.004160  (    0,    7)  1A1A  8A1B  
*  82   -0.004160  (    7,    0)  1A1B  8A1A  
*  83   -0.003779  (    2,    6)  3A1A  7A1B  
*  84   -0.003779  (    6,    2)  3A1B  7A1A  
*  85   -0.003633  (    5,    6)  6A1A  7A1B  
*  86   -0.003633  (    6,    5)  6A1B  7A1A  
*  87   -0.003470  (   37,   38)  3B2A  4B2B  
*  88   -0.003470  (   38,   37)  3B2B  4B2A  
*  89    0.003370  (    4,   10)  5A1A  11A1B  
*  90    0.003370  (   10,    4)  5A1B  11A1A  
*  91    0.003370  (   24,   28)  3B1A  7B1B  
*  92    0.003370  (   28,   24)  3B1B  7B1A  
*  93    0.003361  (   23,   26)  2B1A  5B1B  
*  94    0.003361  (   26,   23)  2B1B  5B1A  
*  95   -0.003361  (    3,    6)  4A1A  7A1B  
*  96   -0.003361  (    6,    3)  4A1B  7A1A  
*  97    0.003299  (    3,    9)  4A1A  10A1B  
*  98    0.003299  (    9,    3)  4A1B  10A1A  
*  99    0.003199  (   10,   10)  11A1X  
* 100   -0.003199  (   28,   28)  7B1X  
* 101   -0.003115  (    4,   11)  5A1A  12A1B  
* 102   -0.003115  (   11,    4)  5A1B  12A1A  
* 103   -0.002953  (    4,    9)  5A1A  10A1B  
* 104   -0.002953  (    9,    4)  5A1B  10A1A  
* 105   -0.002952  (   24,   26)  3B1A  5B1B  
* 106   -0.002952  (   26,   24)  3B1B  5B1A  
* 107   -0.002952  (    4,    6)  5A1A  7A1B  
* 108   -0.002952  (    6,    4)  5A1B  7A1A  
* 109   -0.002939  (   10,   11)  11A1A  12A1B  
* 110   -0.002939  (   11,   10)  11A1B  12A1A  
* 111    0.002929  (   24,   29)  3B1A  8B1B  
* 112    0.002929  (   29,   24)  3B1B  8B1A  
* 113   -0.002863  (    3,   11)  4A1A  12A1B  
* 114   -0.002863  (   11,    3)  4A1B  12A1A  
* 115   -0.002814  (   27,   28)  6B1A  7B1B  
* 116   -0.002814  (   28,   27)  6B1B  7B1A  
* 117   -0.002814  (    7,   10)  8A1A  11A1B  
* 118   -0.002814  (   10,    7)  8A1B  11A1A  
* 119   -0.002591  (   37,   41)  3B2A  7B2B  
* 120   -0.002591  (   41,   37)  3B2B  7B2A  
* 121   -0.002524  (    8,   16)  9A1A  17A1B  
* 122   -0.002524  (   16,    8)  9A1B  17A1A  
* 123   -0.002507  (   18,   18)  2A2X  
* 124    0.002507  (   38,   38)  4B2X  
* 125   -0.002501  (   39,   40)  5B2A  6B2B  
* 126   -0.002501  (   40,   39)  5B2B  6B2A  
* 127    0.002456  (   36,   40)  2B2A  6B2B  
* 128    0.002456  (   40,   36)  2B2B  6B2A  
* 129   -0.002452  (   37,   39)  3B2A  5B2B  
* 130   -0.002452  (   39,   37)  3B2B  5B2A  
* 131    0.002427  (   35,   41)  1B2A  7B2B  
* 132    0.002427  (   41,   35)  1B2B  7B2A  
* 133   -0.002368  (   36,   36)  2B2X  
* 134    0.002368  (   17,   17)  1A2X  
* 135   -0.002290  (   28,   29)  7B1A  8B1B  
* 136   -0.002290  (   29,   28)  7B1B  8B1A  
* 137   -0.002288  (    1,   15)  2A1A  16A1B  
* 138   -0.002288  (   15,    1)  2A1B  16A1A  
* 139    0.002155  (   19,   19)  3A2X  
* 140   -0.002155  (   39,   39)  5B2X  
* 141    0.002103  (    9,   12)  10A1A  13A1B  
* 142    0.002103  (   12,    9)  10A1B  13A1A  
* 143    0.002084  (    5,   12)  6A1A  13A1B  
* 144    0.002084  (   12,    5)  6A1B  13A1A  
* 145   -0.002082  (   26,   27)  5B1A  6B1B  
* 146   -0.002082  (   27,   26)  5B1B  6B1A  
* 147   -0.002082  (    6,    7)  7A1A  8A1B  
* 148   -0.002082  (    7,    6)  7A1B  8A1A  
* 149   -0.002036  (   17,   19)  1A2A  3A2B  
* 150   -0.002036  (   19,   17)  1A2B  3A2A  
* 151    0.002036  (   36,   39)  2B2A  5B2B  
* 152    0.002036  (   39,   36)  2B2B  5B2A  
  153   -0.002029  (    0,    6)  1A1A  7A1B  
  154   -0.002029  (    6,    0)  1A1B  7A1A  
* 155   -0.002016  (    5,    7)  6A1A  8A1B  
* 156   -0.002016  (    7,    5)  6A1B  8A1A  
* 157   -0.001937  (    6,    8)  7A1A  9A1B  
* 158   -0.001937  (    8,    6)  7A1B  9A1A  
* 159    0.001911  (    2,   10)  3A1A  11A1B  
* 160    0.001911  (   10,    2)  3A1B  11A1A  
* 161   -0.001766  (   29,   31)  8B1A  10B1B  
* 162   -0.001766  (   31,   29)  8B1B  10B1A  
* 163   -0.001714  (    5,   16)  6A1A  17A1B  
* 164   -0.001714  (   16,    5)  6A1B  17A1A  
* 165    0.001690  (   17,   18)  1A2A  2A2B  
* 166    0.001690  (   18,   17)  1A2B  2A2A  
* 167   -0.001690  (   36,   38)  2B2A  4B2B  
* 168   -0.001690  (   38,   36)  2B2B  4B2A  
* 169   -0.001677  (    9,   10)  10A1A  11A1B  
* 170   -0.001677  (   10,    9)  10A1B  11A1A  
* 171   -0.001621  (    3,   15)  4A1A  16A1B  
* 172   -0.001621  (   15,    3)  4A1B  16A1A  
* 173   -0.001616  (   25,   28)  4B1A  7B1B  
* 174   -0.001616  (   28,   25)  4B1B  7B1A  
* 175   -0.001616  (   11,   13)  12A1A  14A1B  
* 176   -0.001616  (   13,   11)  12A1B  14A1A  
* 177    0.001607  (    5,   10)  6A1A  11A1B  
* 178    0.001607  (   10,    5)  6A1B  11A1A  
  179   -0.001596  (    3,    2)  3A1B  4A1A  
  180   -0.001596  (    2,    3)  3A1A  4A1B  
* 181   -0.001581  (   23,   32)  2B1A  11B1B  
* 182   -0.001581  (   32,   23)  2B1B  11B1A  
* 183   -0.001581  (    3,   14)  4A1A  15A1B  
* 184   -0.001581  (   14,    3)  4A1B  15A1A  
* 185   -0.001530  (   28,   34)  7B1A  13B1B  
* 186   -0.001530  (   34,   28)  7B1B  13B1A  
* 187    0.001528  (   22,   32)  1B1A  11B1B  
* 188    0.001528  (   32,   22)  1B1B  11B1A  
* 189   -0.001528  (    1,   14)  2A1A  15A1B  
* 190   -0.001528  (   14,    1)  2A1B  15A1A  
* 191   -0.001502  (    7,   15)  8A1A  16A1B  
* 192   -0.001502  (   15,    7)  8A1B  16A1A  
* 193   -0.001495  (    6,   10)  7A1A  11A1B  
* 194   -0.001495  (   10,    6)  7A1B  11A1A  
* 195    0.001495  (   26,   28)  5B1A  7B1B  
* 196    0.001495  (   28,   26)  5B1B  7B1A  
* 197   -0.001482  (    2,   16)  3A1A  17A1B  
* 198   -0.001482  (   16,    2)  3A1B  17A1A  
* 199   -0.001431  (    7,   16)  8A1A  17A1B  
* 200   -0.001431  (   16,    7)  8A1B  17A1A  
* 201   -0.001431  (   27,   33)  6B1A  12B1B  
* 202   -0.001431  (   33,   27)  6B1B  12B1A  
* 203    0.001391  (    8,   10)  9A1A  11A1B  
* 204    0.001391  (   10,    8)  9A1B  11A1A  
* 205   -0.001389  (   18,   20)  2A2A  4A2B  
* 206   -0.001389  (   20,   18)  2A2B  4A2A  
* 207    0.001351  (    4,    5)  5A1A  6A1B  
* 208    0.001351  (    5,    4)  5A1B  6A1A  
* 209   -0.001338  (   25,   31)  4B1A  10B1B  
* 210   -0.001338  (   31,   25)  4B1B  10B1A  
* 211    0.001311  (   23,   33)  2B1A  12B1B  
* 212    0.001311  (   33,   23)  2B1B  12B1A  
* 213   -0.001311  (    3,   16)  4A1A  17A1B  
* 214   -0.001311  (   16,    3)  4A1B  17A1A  
* 215   -0.001299  (   22,   33)  1B1A  12B1B  
* 216   -0.001299  (   33,   22)  1B1B  12B1A  
* 217   -0.001299  (    1,   16)  2A1A  17A1B  
* 218   -0.001299  (   16,    1)  2A1B  17A1A  
* 219    0.001287  (   27,   32)  6B1A  11B1B  
* 220    0.001287  (   32,   27)  6B1B  11B1A  
* 221   -0.001287  (    7,   14)  8A1A  15A1B  
* 222   -0.001287  (   14,    7)  8A1B  15A1A  
* 223    0.001274  (    0,   14)  1A1A  15A1B  
* 224    0.001274  (   14,    0)  1A1B  15A1A  
* 225   -0.001264  (    9,   16)  10A1A  17A1B  
* 226   -0.001264  (   16,    9)  10A1B  17A1A  
* 227   -0.001243  (    7,   11)  8A1A  12A1B  
* 228   -0.001243  (   11,    7)  8A1B  12A1A  
* 229    0.001123  (   33,   33)  12B1X  
* 230   -0.001123  (   16,   16)  17A1X  
* 231   -0.001046  (   12,   12)  13A1X  
* 232    0.001046  (   30,   30)  9B1X  
* 233   -0.001040  (   26,   32)  5B1A  11B1B  
* 234   -0.001040  (   32,   26)  5B1B  11B1A  
* 235   -0.001040  (    6,   14)  7A1A  15A1B  
* 236   -0.001040  (   14,    6)  7A1B  15A1A  
* 237    0.001032  (   26,   26)  5B1X  
* 238   -0.001032  (    6,    6)  7A1X  
* 239    0.001006  (   11,   16)  12A1A  17A1B  
* 240    0.001006  (   16,   11)  12A1B  17A1A  
* 241   -0.000990  (   11,   12)  12A1A  13A1B  
* 242   -0.000990  (   12,   11)  12A1B  13A1A  
* 243    0.000931  (   24,   34)  3B1A  13B1B  
* 244    0.000931  (   34,   24)  3B1B  13B1A  
* 245   -0.000915  (   28,   31)  7B1A  10B1B  
* 246   -0.000915  (   31,   28)  7B1B  10B1A  
* 247   -0.000915  (   10,   13)  11A1A  14A1B  
* 248   -0.000915  (   13,   10)  11A1B  14A1A  
* 249   -0.000893  (   11,   14)  12A1A  15A1B  
* 250   -0.000893  (   14,   11)  12A1B  15A1A  
* 251   -0.000863  (   38,   40)  4B2A  6B2B  
* 252   -0.000863  (   40,   38)  4B2B  6B2A  
* 253   -0.000850  (    8,   12)  9A1A  13A1B  
* 254   -0.000850  (   12,    8)  9A1B  13A1A  
* 255   -0.000842  (   22,   25)  1B1A  4B1B  
* 256   -0.000842  (   25,   22)  1B1B  4B1A  
* 257    0.000840  (   10,   14)  11A1A  15A1B  
* 258    0.000840  (   14,   10)  11A1B  15A1A  
* 259    0.000840  (   28,   32)  7B1A  11B1B  
* 260    0.000840  (   32,   28)  7B1B  11B1A  
* 261    0.000833  (    5,   14)  6A1A  15A1B  
* 262    0.000833  (   14,    5)  6A1B  15A1A  
* 263   -0.000820  (    6,   15)  7A1A  16A1B  
* 264   -0.000820  (   15,    6)  7A1B  16A1A  
* 265   -0.000779  (    0,   16)  1A1A  17A1B  
* 266   -0.000779  (   16,    0)  1A1B  17A1A  
* 267    0.000777  (    5,   13)  6A1A  14A1B  
* 268    0.000777  (   13,    5)  6A1B  14A1A  
* 269   -0.000763  (    4,    8)  5A1A  9A1B  
* 270   -0.000763  (    8,    4)  5A1B  9A1A  
* 271   -0.000751  (   41,   41)  7B2X  
* 272    0.000751  (   21,   21)  5A2X  
* 273    0.000747  (   32,   34)  11B1A  13B1B  
* 274    0.000747  (   34,   32)  11B1B  13B1A  
* 275   -0.000733  (   31,   34)  10B1A  13B1B  
* 276   -0.000733  (   34,   31)  10B1B  13B1A  
* 277    0.000700  (   19,   20)  3A2A  4A2B  
* 278    0.000700  (   20,   19)  3A2B  4A2A  
* 279   -0.000698  (    6,    9)  7A1A  10A1B  
* 280   -0.000698  (    9,    6)  7A1B  10A1A  
* 281   -0.000679  (   39,   41)  5B2A  7B2B  
* 282   -0.000679  (   41,   39)  5B2B  7B2A  
* 283   -0.000679  (   19,   21)  3A2A  5A2B  
* 284   -0.000679  (   21,   19)  3A2B  5A2A  
* 285    0.000676  (    2,   12)  3A1A  13A1B  
* 286    0.000676  (   12,    2)  3A1B  13A1A  
* 287    0.000663  (   27,   29)  6B1A  8B1B  
* 288    0.000663  (   29,   27)  6B1B  8B1A  
* 289    0.000655  (   24,   31)  3B1A  10B1B  
* 290    0.000655  (   31,   24)  3B1B  10B1A  
* 291   -0.000655  (    4,   13)  5A1A  14A1B  
* 292   -0.000655  (   13,    4)  5A1B  14A1A  
* 293    0.000633  (   26,   33)  5B1A  12B1B  
* 294    0.000633  (   33,   26)  5B1B  12B1A  
* 295   -0.000633  (    6,   16)  7A1A  17A1B  
* 296   -0.000633  (   16,    6)  7A1B  17A1A  
* 297   -0.000617  (   14,   15)  15A1A  16A1B  
* 298   -0.000617  (   15,   14)  15A1B  16A1A  
* 299    0.000607  (    9,   14)  10A1A  15A1B  
* 300    0.000607  (   14,    9)  10A1B  15A1A  
* 301    0.000602  (    0,   12)  1A1A  13A1B  
* 302    0.000602  (   12,    0)  1A1B  13A1A  
* 303   -0.000579  (   20,   21)  4A2A  5A2B  
* 304   -0.000579  (   21,   20)  4A2B  5A2A  
* 305    0.000575  (   36,   41)  2B2A  7B2B  
* 306    0.000575  (   41,   36)  2B2B  7B2A  
* 307    0.000575  (   17,   21)  1A2A  5A2B  
* 308    0.000575  (   21,   17)  1A2B  5A2A  
* 309   -0.000574  (    9,   13)  10A1A  14A1B  
* 310   -0.000574  (   13,    9)  10A1B  14A1A  
* 311   -0.000562  (    8,   13)  9A1A  14A1B  
* 312   -0.000562  (   13,    8)  9A1B  14A1A  
* 313   -0.000560  (   31,   32)  10B1A  11B1B  
* 314   -0.000560  (   32,   31)  10B1B  11B1A  
* 315    0.000560  (   13,   14)  14A1A  15A1B  
* 316    0.000560  (   14,   13)  14A1B  15A1A  
* 317   -0.000550  (   33,   34)  12B1A  13B1B  
* 318   -0.000550  (   34,   33)  12B1B  13B1A  
* 319   -0.000535  (   24,   30)  3B1A  9B1B  
* 320   -0.000535  (   30,   24)  3B1B  9B1A  
* 321   -0.000535  (    4,   12)  5A1A  13A1B  
* 322   -0.000535  (   12,    4)  5A1B  13A1A  
* 323    0.000526  (    2,   14)  3A1A  15A1B  
* 324    0.000526  (   14,    2)  3A1B  15A1A  
* 325    0.000509  (   14,   14)  15A1X  
* 326   -0.000509  (   32,   32)  11B1X  
* 327    0.000491  (    6,   11)  7A1A  12A1B  
* 328    0.000491  (   11,    6)  7A1B  12A1A  
* 329   -0.000468  (   25,   26)  4B1A  5B1B  
* 330   -0.000468  (   26,   25)  4B1B  5B1A  
* 331   -0.000403  (   18,   21)  2A2A  5A2B  
* 332   -0.000403  (   21,   18)  2A2B  5A2A  
* 333   -0.000403  (   38,   41)  4B2A  7B2B  
* 334   -0.000403  (   41,   38)  4B2B  7B2A  
* 335   -0.000399  (   28,   33)  7B1A  12B1B  
* 336   -0.000399  (   33,   28)  7B1B  12B1A  
* 337    0.000399  (   10,   16)  11A1A  17A1B  
* 338    0.000399  (   16,   10)  11A1B  17A1A  
* 339    0.000394  (   25,   27)  4B1A  6B1B  
* 340    0.000394  (   27,   25)  4B1B  6B1A  
* 341    0.000393  (   12,   15)  13A1A  16A1B  
* 342    0.000393  (   15,   12)  13A1B  16A1A  
* 343    0.000372  (    4,   14)  5A1A  15A1B  
* 344    0.000372  (   14,    4)  5A1B  15A1A  
* 345   -0.000372  (   24,   32)  3B1A  11B1B  
* 346   -0.000372  (   32,   24)  3B1B  11B1A  
* 347    0.000370  (    6,   12)  7A1A  13A1B  
* 348    0.000370  (   12,    6)  7A1B  13A1A  
* 349   -0.000370  (   26,   30)  5B1A  9B1B  
* 350   -0.000370  (   30,   26)  5B1B  9B1A  
* 351    0.000322  (    8,   14)  9A1A  15A1B  
* 352    0.000322  (   14,    8)  9A1B  15A1A  
* 353    0.000301  (   27,   34)  6B1A  13B1B  
* 354    0.000301  (   34,   27)  6B1B  13B1A  
* 355   -0.000301  (   38,   39)  4B2A  5B2B  
* 356   -0.000301  (   39,   38)  4B2B  5B2A  
* 357    0.000301  (   18,   19)  2A2A  3A2B  
* 358    0.000301  (   19,   18)  2A2B  3A2A  
* 359    0.000299  (   28,   30)  7B1A  9B1B  
* 360    0.000299  (   30,   28)  7B1B  9B1A  
* 361   -0.000299  (   10,   12)  11A1A  13A1B  
* 362   -0.000299  (   12,   10)  11A1B  13A1A  
* 363   -0.000295  (   27,   30)  6B1A  9B1B  
* 364   -0.000295  (   30,   27)  6B1B  9B1A  
* 365   -0.000295  (    7,   12)  8A1A  13A1B  
* 366   -0.000295  (   12,    7)  8A1B  13A1A  
  367    0.000290  (    2,    4)  3A1A  5A1B  
  368    0.000290  (    4,    2)  3A1B  5A1A  
* 369   -0.000289  (    0,   13)  1A1A  14A1B  
* 370   -0.000289  (   13,    0)  1A1B  14A1A  
* 371   -0.000269  (   29,   30)  8B1A  9B1B  
* 372   -0.000269  (   30,   29)  8B1B  9B1A  
* 373   -0.000252  (   26,   29)  5B1A  8B1B  
* 374   -0.000252  (   29,   26)  5B1B  8B1A  
* 375   -0.000252  (   25,   30)  4B1A  9B1B  
* 376   -0.000252  (   30,   25)  4B1B  9B1A  
* 377   -0.000249  (   22,   29)  1B1A  8B1B  
* 378   -0.000249  (   29,   22)  1B1B  8B1A  
* 379   -0.000243  (   10,   15)  11A1A  16A1B  
* 380   -0.000243  (   15,   10)  11A1B  16A1A  
* 381    0.000240  (   30,   32)  9B1A  11B1B  
* 382    0.000240  (   32,   30)  9B1B  11B1A  
* 383    0.000240  (   12,   14)  13A1A  15A1B  
* 384    0.000240  (   14,   12)  13A1B  15A1A  
* 385   -0.000230  (   29,   33)  8B1A  12B1B  
* 386   -0.000230  (   33,   29)  8B1B  12B1A  
* 387    0.000208  (   23,   31)  2B1A  10B1B  
* 388    0.000208  (   31,   23)  2B1B  10B1A  
* 389    0.000208  (    3,   13)  4A1A  14A1B  
* 390    0.000208  (   13,    3)  4A1B  14A1A  
* 391   -0.000198  (   22,   31)  1B1A  10B1B  
* 392   -0.000198  (   31,   22)  1B1B  10B1A  
* 393    0.000198  (    1,   13)  2A1A  14A1B  
* 394    0.000198  (   13,    1)  2A1B  14A1A  
* 395   -0.000177  (   17,   20)  1A2A  4A2B  
* 396   -0.000177  (   20,   17)  1A2B  4A2A  
* 397    0.000176  (   24,   33)  3B1A  12B1B  
* 398    0.000176  (   33,   24)  3B1B  12B1A  
* 399    0.000176  (    4,   16)  5A1A  17A1B  
* 400    0.000176  (   16,    4)  5A1B  17A1A  
* 401    0.000174  (   23,   25)  2B1A  4B1B  
* 402    0.000174  (   25,   23)  2B1B  4B1A  
* 403   -0.000155  (   32,   33)  11B1A  12B1B  
* 404   -0.000155  (   33,   32)  11B1B  12B1A  
* 405   -0.000155  (   14,   16)  15A1A  17A1B  
* 406   -0.000155  (   16,   14)  15A1B  17A1A  
* 407   -0.000130  (   13,   15)  14A1A  16A1B  
* 408   -0.000130  (   15,   13)  14A1B  16A1A  
* 409   -0.000129  (   40,   41)  6B2A  7B2B  
* 410   -0.000129  (   41,   40)  6B2B  7B2A  
* 411    0.000126  (   12,   16)  13A1A  17A1B  
* 412    0.000126  (   16,   12)  13A1B  17A1A  
* 413   -0.000126  (   30,   33)  9B1A  12B1B  
* 414   -0.000126  (   33,   30)  9B1B  12B1A  
* 415   -0.000112  (    3,   12)  4A1A  13A1B  
* 416   -0.000112  (   12,    3)  4A1B  13A1A  
* 417    0.000112  (   23,   30)  2B1A  9B1B  
* 418    0.000112  (   30,   23)  2B1B  9B1A  
* 419   -0.000110  (    4,   15)  5A1A  16A1B  
* 420   -0.000110  (   15,    4)  5A1B  16A1A  
* 421   -0.000110  (   22,   34)  1B1A  13B1B  
* 422   -0.000110  (   34,   22)  1B1B  13B1A  
* 423    0.000102  (    7,    9)  8A1A  10A1B  
* 424    0.000102  (    9,    7)  8A1B  10A1A  
* 425   -0.000094  (    7,   13)  8A1A  14A1B  
* 426   -0.000094  (   13,    7)  8A1B  14A1A  
* 427    0.000094  (   27,   31)  6B1A  10B1B  
* 428    0.000094  (   31,   27)  6B1B  10B1A  
* 429    0.000091  (    6,   13)  7A1A  14A1B  
* 430    0.000091  (   13,    6)  7A1B  14A1A  
* 431    0.000091  (   26,   31)  5B1A  10B1B  
* 432    0.000091  (   31,   26)  5B1B  10B1A  
[...]
*  61   -0.005765  (    8,   23)  9A1A  2B1B  
*  62   -0.005765  (   23,    8)  9A1B  2B1A  
*  63   -0.005630  (    7,   27)  8A1A  6B1B  
*  64   -0.005630  (   27,    7)  8A1B  6B1A  
*  65   -0.005271  (   17,   37)  1A2A  3B2B  
*  66   -0.005271  (   37,   17)  1A2B  3B2A  
*  67    0.005135  (    4,   25)  5A1A  4B1B  
*  68    0.005135  (   25,    4)  5A1B  4B1A  
*  69   -0.004523  (    7,   24)  8A1A  3B1B  
*  70   -0.004523  (   24,    7)  8A1B  3B1A  
*  71   -0.004523  (    4,   27)  5A1A  6B1B  
*  72   -0.004523  (   27,    4)  5A1B  6B1A  
*  73    0.004494  (    0,   28)  1A1A  7B1B  
*  74    0.004494  (   28,    0)  1A1B  7B1A  
*  75   -0.004323  (   19,   35)  3A2A  1B2B  
*  76   -0.004323  (   35,   19)  3A2B  1B2A  
*  77    0.004312  (    1,   26)  2A1A  5B1B  
*  78    0.004312  (   26,    1)  2A1B  5B1A  
*  79   -0.004312  (    6,   22)  7A1A  1B1B  
*  80   -0.004312  (   22,    6)  7A1B  1B1A  
*  81    0.004160  (    0,   27)  1A1A  6B1B  
*  82    0.004160  (   27,    0)  1A1B  6B1A  
*  83   -0.003779  (    2,   26)  3A1A  5B1B  
*  84   -0.003779  (   26,    2)  3A1B  5B1A  
*  85   -0.003633  (    5,   26)  6A1A  5B1B  
*  86   -0.003633  (   26,    5)  6A1B  5B1A  
*  87    0.003470  (   18,   37)  2A2A  3B2B  
*  88    0.003470  (   37,   18)  2A2B  3B2A  
*  89   -0.003370  (    4,   28)  5A1A  7B1B  
*  90   -0.003370  (   28,    4)  5A1B  7B1A  
*  91    0.003370  (   10,   24)  11A1A  3B1B  
*  92    0.003370  (   24,   10)  11A1B  3B1A  
*  93    0.003361  (    3,   26)  4A1A  5B1B  
*  94    0.003361  (   26,    3)  4A1B  5B1A  
*  95    0.003361  (    6,   23)  7A1A  2B1B  
*  96    0.003361  (   23,    6)  7A1B  2B1A  
*  97    0.003299  (    9,   23)  10A1A  2B1B  
*  98    0.003299  (   23,    9)  10A1B  2B1A  
*  99   -0.003199  (   10,   28)  11A1A  7B1B  
* 100   -0.003199  (   28,   10)  11A1B  7B1A  
* 101    0.003115  (   11,   24)  12A1A  3B1B  
* 102    0.003115  (   24,   11)  12A1B  3B1A  
* 103    0.002953  (    9,   24)  10A1A  3B1B  
* 104    0.002953  (   24,    9)  10A1B  3B1A  
* 105    0.002952  (    4,   26)  5A1A  5B1B  
* 106    0.002952  (   26,    4)  5A1B  5B1A  
* 107   -0.002952  (    6,   24)  7A1A  3B1B  
* 108   -0.002952  (   24,    6)  7A1B  3B1A  
* 109   -0.002939  (   11,   28)  12A1A  7B1B  
* 110   -0.002939  (   28,   11)  12A1B  7B1A  
* 111    0.002929  (    4,   29)  5A1A  8B1B  
* 112    0.002929  (   29,    4)  5A1B  8B1A  
* 113   -0.002863  (   11,   23)  12A1A  2B1B  
* 114   -0.002863  (   23,   11)  12A1B  2B1A  
* 115   -0.002814  (   10,   27)  11A1A  6B1B  
* 116   -0.002814  (   27,   10)  11A1B  6B1A  
* 117    0.002814  (    7,   28)  8A1A  7B1B  
* 118    0.002814  (   28,    7)  8A1B  7B1A  
* 119   -0.002591  (   21,   37)  5A2A  3B2B  
* 120   -0.002591  (   37,   21)  5A2B  3B2A  
* 121   -0.002524  (    8,   33)  9A1A  12B1B  
* 122   -0.002524  (   33,    8)  9A1B  12B1A  
* 123    0.002507  (   18,   38)  2A2A  4B2B  
* 124    0.002507  (   38,   18)  2A2B  4B2A  
* 125    0.002501  (   19,   40)  3A2A  6B2B  
* 126    0.002501  (   40,   19)  3A2B  6B2A  
* 127   -0.002456  (   17,   40)  1A2A  6B2B  
* 128   -0.002456  (   40,   17)  1A2B  6B2A  
* 129    0.002452  (   19,   37)  3A2A  3B2B  
* 130    0.002452  (   37,   19)  3A2B  3B2A  
* 131    0.002427  (   21,   35)  5A2A  1B2B  
* 132    0.002427  (   35,   21)  5A2B  1B2A  
* 133   -0.002368  (   17,   36)  1A2A  2B2B  
* 134   -0.002368  (   36,   17)  1A2B  2B2A  
* 135    0.002290  (   10,   29)  11A1A  8B1B  
* 136    0.002290  (   29,   10)  11A1B  8B1A  
* 137    0.002288  (   15,   22)  16A1A  1B1B  
* 138    0.002288  (   22,   15)  16A1B  1B1A  
* 139   -0.002155  (   19,   39)  3A2A  5B2B  
* 140   -0.002155  (   39,   19)  3A2B  5B2A  
* 141    0.002103  (    9,   30)  10A1A  9B1B  
* 142    0.002103  (   30,    9)  10A1B  9B1A  
* 143    0.002084  (    5,   30)  6A1A  9B1B  
* 144    0.002084  (   30,    5)  6A1B  9B1A  
* 145    0.002082  (    7,   26)  8A1A  5B1B  
* 146    0.002082  (   26,    7)  8A1B  5B1A  
* 147   -0.002082  (    6,   27)  7A1A  6B1B  
* 148   -0.002082  (   27,    6)  7A1B  6B1A  
* 149    0.002036  (   17,   39)  1A2A  5B2B  
* 150    0.002036  (   39,   17)  1A2B  5B2A  
* 151    0.002036  (   19,   36)  3A2A  2B2B  
* 152    0.002036  (   36,   19)  3A2B  2B2A  
  153   -0.002029  (    0,   26)  1A1A  5B1B  
  154   -0.002029  (   26,    0)  1A1B  5B1A  
* 155    0.002016  (    5,   27)  6A1A  6B1B  
* 156    0.002016  (   27,    5)  6A1B  6B1A  
* 157   -0.001937  (    8,   26)  9A1A  5B1B  
* 158   -0.001937  (   26,    8)  9A1B  5B1A  
* 159    0.001911  (    2,   28)  3A1A  7B1B  
* 160    0.001911  (   28,    2)  3A1B  7B1A  
* 161   -0.001766  (   13,   29)  14A1A  8B1B  
* 162   -0.001766  (   29,   13)  14A1B  8B1A  
* 163   -0.001714  (    5,   33)  6A1A  12B1B  
* 164   -0.001714  (   33,    5)  6A1B  12B1A  
* 165   -0.001690  (   17,   38)  1A2A  4B2B  
* 166   -0.001690  (   38,   17)  1A2B  4B2A  
* 167   -0.001690  (   18,   36)  2A2A  2B2B  
* 168   -0.001690  (   36,   18)  2A2B  2B2A  
* 169   -0.001677  (    9,   28)  10A1A  7B1B  
* 170   -0.001677  (   28,    9)  10A1B  7B1A  
* 171   -0.001621  (   15,   23)  16A1A  2B1B  
* 172   -0.001621  (   23,   15)  16A1B  2B1A  
* 173    0.001616  (   10,   25)  11A1A  4B1B  
* 174    0.001616  (   25,   10)  11A1B  4B1A  
* 175    0.001616  (   11,   31)  12A1A  10B1B  
* 176    0.001616  (   31,   11)  12A1B  10B1A  
* 177    0.001607  (    5,   28)  6A1A  7B1B  
* 178    0.001607  (   28,    5)  6A1B  7B1A  
  179   -0.001596  (    2,   23)  3A1A  2B1B  
  180   -0.001596  (   23,    2)  3A1B  2B1A  
* 181    0.001581  (   14,   23)  15A1A  2B1B  
* 182    0.001581  (   23,   14)  15A1B  2B1A  
* 183   -0.001581  (    3,   32)  4A1A  11B1B  
* 184   -0.001581  (   32,    3)  4A1B  11B1A  
* 185    0.001530  (   10,   34)  11A1A  13B1B  
* 186    0.001530  (   34,   10)  11A1B  13B1A  
* 187   -0.001528  (   14,   22)  15A1A  1B1B  
* 188   -0.001528  (   22,   14)  15A1B  1B1A  
* 189   -0.001528  (    1,   32)  2A1A  11B1B  
* 190   -0.001528  (   32,    1)  2A1B  11B1A  
* 191    0.001502  (   15,   27)  16A1A  6B1B  
* 192    0.001502  (   27,   15)  16A1B  6B1A  
* 193    0.001495  (   10,   26)  11A1A  5B1B  
* 194    0.001495  (   26,   10)  11A1B  5B1A  
* 195    0.001495  (    6,   28)  7A1A  7B1B  
* 196    0.001495  (   28,    6)  7A1B  7B1A  
* 197   -0.001482  (    2,   33)  3A1A  12B1B  
* 198   -0.001482  (   33,    2)  3A1B  12B1A  
* 199    0.001431  (    7,   33)  8A1A  12B1B  
* 200    0.001431  (   33,    7)  8A1B  12B1A  
* 201   -0.001431  (   16,   27)  17A1A  6B1B  
* 202   -0.001431  (   27,   16)  17A1B  6B1A  
* 203    0.001391  (    8,   28)  9A1A  7B1B  
* 204    0.001391  (   28,    8)  9A1B  7B1A  
* 205   -0.001389  (   20,   38)  4A2A  4B2B  
* 206   -0.001389  (   38,   20)  4A2B  4B2A  
* 207   -0.001351  (    5,   24)  6A1A  3B1B  
* 208   -0.001351  (   24,    5)  6A1B  3B1A  
* 209   -0.001338  (   13,   25)  14A1A  4B1B  
* 210   -0.001338  (   25,   13)  14A1B  4B1A  
* 211    0.001311  (   16,   23)  17A1A  2B1B  
* 212    0.001311  (   23,   16)  17A1B  2B1A  
* 213    0.001311  (    3,   33)  4A1A  12B1B  
* 214    0.001311  (   33,    3)  4A1B  12B1A  
* 215   -0.001299  (   16,   22)  17A1A  1B1B  
* 216   -0.001299  (   22,   16)  17A1B  1B1A  
* 217    0.001299  (    1,   33)  2A1A  12B1B  
* 218    0.001299  (   33,    1)  2A1B  12B1A  
* 219   -0.001287  (   14,   27)  15A1A  6B1B  
* 220   -0.001287  (   27,   14)  15A1B  6B1A  
* 221   -0.001287  (    7,   32)  8A1A  11B1B  
* 222   -0.001287  (   32,    7)  8A1B  11B1A  
* 223   -0.001274  (    0,   32)  1A1A  11B1B  
* 224   -0.001274  (   32,    0)  1A1B  11B1A  
* 225   -0.001264  (    9,   33)  10A1A  12B1B  
* 226   -0.001264  (   33,    9)  10A1B  12B1A  
* 227    0.001243  (   11,   27)  12A1A  6B1B  
* 228    0.001243  (   27,   11)  12A1B  6B1A  
* 229    0.001123  (   16,   33)  17A1A  12B1B  
* 230    0.001123  (   33,   16)  17A1B  12B1A  
* 231    0.001046  (   12,   30)  13A1A  9B1B  
* 232    0.001046  (   30,   12)  13A1B  9B1A  
* 233    0.001040  (   14,   26)  15A1A  5B1B  
* 234    0.001040  (   26,   14)  15A1B  5B1A  
* 235   -0.001040  (    6,   32)  7A1A  11B1B  
* 236   -0.001040  (   32,    6)  7A1B  11B1A  
* 237    0.001032  (    6,   26)  7A1A  5B1B  
* 238    0.001032  (   26,    6)  7A1B  5B1A  
* 239    0.001006  (   11,   33)  12A1A  12B1B  
* 240    0.001006  (   33,   11)  12A1B  12B1A  
* 241   -0.000990  (   11,   30)  12A1A  9B1B  
* 242   -0.000990  (   30,   11)  12A1B  9B1A  
* 243    0.000931  (    4,   34)  5A1A  13B1B  
* 244    0.000931  (   34,    4)  5A1B  13B1A  
* 245   -0.000915  (   10,   31)  11A1A  10B1B  
* 246   -0.000915  (   31,   10)  11A1B  10B1A  
* 247    0.000915  (   13,   28)  14A1A  7B1B  
* 248    0.000915  (   28,   13)  14A1B  7B1A  
* 249    0.000893  (   11,   32)  12A1A  11B1B  
* 250    0.000893  (   32,   11)  12A1B  11B1A  
* 251    0.000863  (   18,   40)  2A2A  6B2B  
* 252    0.000863  (   40,   18)  2A2B  6B2A  
* 253   -0.000850  (    8,   30)  9A1A  9B1B  
* 254   -0.000850  (   30,    8)  9A1B  9B1A  
* 255   -0.000842  (    1,   25)  2A1A  4B1B  
* 256   -0.000842  (   25,    1)  2A1B  4B1A  
* 257   -0.000840  (   14,   28)  15A1A  7B1B  
* 258   -0.000840  (   28,   14)  15A1B  7B1A  
* 259    0.000840  (   10,   32)  11A1A  11B1B  
* 260    0.000840  (   32,   10)  11A1B  11B1A  
* 261   -0.000833  (    5,   32)  6A1A  11B1B  
* 262   -0.000833  (   32,    5)  6A1B  11B1A  
* 263   -0.000820  (   15,   26)  16A1A  5B1B  
* 264   -0.000820  (   26,   15)  16A1B  5B1A  
* 265   -0.000779  (    0,   33)  1A1A  12B1B  
* 266   -0.000779  (   33,    0)  1A1B  12B1A  
* 267   -0.000777  (    5,   31)  6A1A  10B1B  
* 268   -0.000777  (   31,    5)  6A1B  10B1A  
* 269    0.000763  (    8,   24)  9A1A  3B1B  
* 270    0.000763  (   24,    8)  9A1B  3B1A  
* 271    0.000751  (   21,   41)  5A2A  7B2B  
* 272    0.000751  (   41,   21)  5A2B  7B2A  
* 273    0.000747  (   14,   34)  15A1A  13B1B  
* 274    0.000747  (   34,   14)  15A1B  13B1A  
* 275   -0.000733  (   13,   34)  14A1A  13B1B  
* 276   -0.000733  (   34,   13)  14A1B  13B1A  
* 277    0.000700  (   20,   39)  4A2A  5B2B  
* 278    0.000700  (   39,   20)  4A2B  5B2A  
* 279   -0.000698  (    9,   26)  10A1A  5B1B  
* 280   -0.000698  (   26,    9)  10A1B  5B1A  
* 281    0.000679  (   21,   39)  5A2A  5B2B  
* 282    0.000679  (   39,   21)  5A2B  5B2A  
* 283   -0.000679  (   19,   41)  3A2A  7B2B  
* 284   -0.000679  (   41,   19)  3A2B  7B2A  
* 285    0.000676  (    2,   30)  3A1A  9B1B  
* 286    0.000676  (   30,    2)  3A1B  9B1A  
* 287    0.000663  (    7,   29)  8A1A  8B1B  
* 288    0.000663  (   29,    7)  8A1B  8B1A  
* 289   -0.000655  (    4,   31)  5A1A  10B1B  
* 290   -0.000655  (   31,    4)  5A1B  10B1A  
* 291   -0.000655  (   13,   24)  14A1A  3B1B  
* 292   -0.000655  (   24,   13)  14A1B  3B1A  
* 293    0.000633  (   16,   26)  17A1A  5B1B  
* 294    0.000633  (   26,   16)  17A1B  5B1A  
* 295    0.000633  (    6,   33)  7A1A  12B1B  
* 296    0.000633  (   33,    6)  7A1B  12B1A  
* 297    0.000617  (   15,   32)  16A1A  11B1B  
* 298    0.000617  (   32,   15)  16A1B  11B1A  
* 299   -0.000607  (    9,   32)  10A1A  11B1B  
* 300   -0.000607  (   32,    9)  10A1B  11B1A  
* 301    0.000602  (    0,   30)  1A1A  9B1B  
* 302    0.000602  (   30,    0)  1A1B  9B1A  
* 303    0.000579  (   20,   41)  4A2A  7B2B  
* 304    0.000579  (   41,   20)  4A2B  7B2A  
* 305    0.000575  (   17,   41)  1A2A  7B2B  
* 306    0.000575  (   41,   17)  1A2B  7B2A  
* 307   -0.000575  (   21,   36)  5A2A  2B2B  
* 308   -0.000575  (   36,   21)  5A2B  2B2A  
* 309    0.000574  (    9,   31)  10A1A  10B1B  
* 310    0.000574  (   31,    9)  10A1B  10B1A  
* 311    0.000562  (    8,   31)  9A1A  10B1B  
* 312    0.000562  (   31,    8)  9A1B  10B1A  
* 313    0.000560  (   14,   31)  15A1A  10B1B  
* 314    0.000560  (   31,   14)  15A1B  10B1A  
* 315    0.000560  (   13,   32)  14A1A  11B1B  
* 316    0.000560  (   32,   13)  14A1B  11B1A  
* 317    0.000550  (   16,   34)  17A1A  13B1B  
* 318    0.000550  (   34,   16)  17A1B  13B1A  
* 319    0.000535  (    4,   30)  5A1A  9B1B  
* 320    0.000535  (   30,    4)  5A1B  9B1A  
* 321   -0.000535  (   12,   24)  13A1A  3B1B  
* 322   -0.000535  (   24,   12)  13A1B  3B1A  
* 323   -0.000526  (    2,   32)  3A1A  11B1B  
* 324   -0.000526  (   32,    2)  3A1B  11B1A  
* 325    0.000509  (   14,   32)  15A1A  11B1B  
* 326    0.000509  (   32,   14)  15A1B  11B1A  
* 327    0.000491  (   11,   26)  12A1A  5B1B  
* 328    0.000491  (   26,   11)  12A1B  5B1A  
* 329    0.000468  (    6,   25)  7A1A  4B1B  
* 330    0.000468  (   25,    6)  7A1B  4B1A  
* 331   -0.000403  (   18,   41)  2A2A  7B2B  
* 332   -0.000403  (   41,   18)  2A2B  7B2A  
* 333    0.000403  (   21,   38)  5A2A  4B2B  
* 334    0.000403  (   38,   21)  5A2B  4B2A  
* 335   -0.000399  (   10,   33)  11A1A  12B1B  
* 336   -0.000399  (   33,   10)  11A1B  12B1A  
* 337   -0.000399  (   16,   28)  17A1A  7B1B  
* 338   -0.000399  (   28,   16)  17A1B  7B1A  
* 339    0.000394  (    7,   25)  8A1A  4B1B  
* 340    0.000394  (   25,    7)  8A1B  4B1A  
* 341    0.000393  (   15,   30)  16A1A  9B1B  
* 342    0.000393  (   30,   15)  16A1B  9B1A  
* 343    0.000372  (   14,   24)  15A1A  3B1B  
* 344    0.000372  (   24,   14)  15A1B  3B1A  
* 345    0.000372  (    4,   32)  5A1A  11B1B  
* 346    0.000372  (   32,    4)  5A1B  11B1A  
* 347   -0.000370  (    6,   30)  7A1A  9B1B  
* 348   -0.000370  (   30,    6)  7A1B  9B1A  
* 349   -0.000370  (   12,   26)  13A1A  5B1B  
* 350   -0.000370  (   26,   12)  13A1B  5B1A  
* 351   -0.000322  (    8,   32)  9A1A  11B1B  
* 352   -0.000322  (   32,    8)  9A1B  11B1A  
* 353    0.000301  (    7,   34)  8A1A  13B1B  
* 354    0.000301  (   34,    7)  8A1B  13B1A  
* 355   -0.000301  (   18,   39)  2A2A  5B2B  
* 356   -0.000301  (   39,   18)  2A2B  5B2A  
* 357   -0.000301  (   19,   38)  3A2A  4B2B  
* 358   -0.000301  (   38,   19)  3A2B  4B2A  
* 359    0.000299  (   10,   30)  11A1A  9B1B  
* 360    0.000299  (   30,   10)  11A1B  9B1A  
* 361    0.000299  (   12,   28)  13A1A  7B1B  
* 362    0.000299  (   28,   12)  13A1B  7B1A  
* 363   -0.000295  (   12,   27)  13A1A  6B1B  
* 364   -0.000295  (   27,   12)  13A1B  6B1A  
* 365    0.000295  (    7,   30)  8A1A  9B1B  
* 366    0.000295  (   30,    7)  8A1B  9B1A  
  367   -0.000290  (    2,   24)  3A1A  3B1B  
  368   -0.000290  (   24,    2)  3A1B  3B1A  
* 369    0.000289  (    0,   31)  1A1A  10B1B  
* 370    0.000289  (   31,    0)  1A1B  10B1A  
* 371    0.000269  (   12,   29)  13A1A  8B1B  
* 372    0.000269  (   29,   12)  13A1B  8B1A  
* 373    0.000252  (    6,   29)  7A1A  8B1B  
* 374    0.000252  (   29,    6)  7A1B  8B1A  
* 375    0.000252  (   12,   25)  13A1A  4B1B  
* 376    0.000252  (   25,   12)  13A1B  4B1A  
* 377   -0.000249  (    1,   29)  2A1A  8B1B  
* 378   -0.000249  (   29,    1)  2A1B  8B1A  
* 379   -0.000243  (   15,   28)  16A1A  7B1B  
* 380   -0.000243  (   28,   15)  16A1B  7B1A  
* 381   -0.000240  (   14,   30)  15A1A  9B1B  
* 382   -0.000240  (   30,   14)  15A1B  9B1A  
* 383    0.000240  (   12,   32)  13A1A  11B1B  
* 384    0.000240  (   32,   12)  13A1B  11B1A  
* 385    0.000230  (   16,   29)  17A1A  8B1B  
* 386    0.000230  (   29,   16)  17A1B  8B1A  
* 387    0.000208  (    3,   31)  4A1A  10B1B  
* 388    0.000208  (   31,    3)  4A1B  10B1A  
* 389   -0.000208  (   13,   23)  14A1A  2B1B  
* 390   -0.000208  (   23,   13)  14A1B  2B1A  
* 391    0.000198  (    1,   31)  2A1A  10B1B  
* 392    0.000198  (   31,    1)  2A1B  10B1A  
* 393    0.000198  (   13,   22)  14A1A  1B1B  
* 394    0.000198  (   22,   13)  14A1B  1B1A  
* 395   -0.000177  (   20,   36)  4A2A  2B2B  
* 396   -0.000177  (   36,   20)  4A2B  2B2A  
* 397   -0.000176  (    4,   33)  5A1A  12B1B  
* 398   -0.000176  (   33,    4)  5A1B  12B1A  
* 399    0.000176  (   16,   24)  17A1A  3B1B  
* 400    0.000176  (   24,   16)  17A1B  3B1A  
* 401   -0.000174  (    3,   25)  4A1A  4B1B  
* 402   -0.000174  (   25,    3)  4A1B  4B1A  
* 403   -0.000155  (   16,   32)  17A1A  11B1B  
* 404   -0.000155  (   32,   16)  17A1B  11B1A  
* 405    0.000155  (   14,   33)  15A1A  12B1B  
* 406    0.000155  (   33,   14)  15A1B  12B1A  
* 407    0.000130  (   15,   31)  16A1A  10B1B  
* 408    0.000130  (   31,   15)  16A1B  10B1A  
* 409   -0.000129  (   21,   40)  5A2A  6B2B  
* 410   -0.000129  (   40,   21)  5A2B  6B2A  
* 411   -0.000126  (   16,   30)  17A1A  9B1B  
* 412   -0.000126  (   30,   16)  17A1B  9B1A  
* 413   -0.000126  (   12,   33)  13A1A  12B1B  
* 414   -0.000126  (   33,   12)  13A1B  12B1A  
* 415    0.000112  (   12,   23)  13A1A  2B1B  
* 416    0.000112  (   23,   12)  13A1B  2B1A  
* 417    0.000112  (    3,   30)  4A1A  9B1B  
* 418    0.000112  (   30,    3)  4A1B  9B1A  
* 419    0.000110  (   15,   24)  16A1A  3B1B  
* 420    0.000110  (   24,   15)  16A1B  3B1A  
* 421   -0.000110  (    1,   34)  2A1A  13B1B  
* 422   -0.000110  (   34,    1)  2A1B  13B1A  
* 423   -0.000102  (    9,   27)  10A1A  6B1B  
* 424   -0.000102  (   27,    9)  10A1B  6B1A  
* 425   -0.000094  (   13,   27)  14A1A  6B1B  
* 426   -0.000094  (   27,   13)  14A1B  6B1A  
* 427   -0.000094  (    7,   31)  8A1A  10B1B  
* 428   -0.000094  (   31,    7)  8A1B  10B1A  
* 429    0.000091  (    6,   31)  7A1A  10B1B  
* 430    0.000091  (   31,    6)  7A1B  10B1A  
* 431   -0.000091  (   13,   26)  14A1A  5B1B  
* 432   -0.000091  (   26,   13)  14A1B  5B1A  
* 433    0.000082  (   14,   29)  15A1A  8B1B  
* 434    0.000082  (   29,   14)  15A1B  8B1A  
* 435    0.000076  (   14,   25)  15A1A  4B1B  
* 436    0.000076  (   25,   14)  15A1B  4B1A  
* 437    0.000076  (    1,   30)  2A1A  9B1B  
* 438    0.000076  (   30,    1)  2A1B  9B1A  
* 439   -0.000076  (   12,   22)  13A1A  1B1B  
* 440   -0.000076  (   22,   12)  13A1B  1B1A  
* 441   -0.000056  (    2,   31)  3A1A  10B1B  
* 442   -0.000056  (   31,    2)  3A1B  10B1A  
* 443    0.000054  (    3,   29)  4A1A  8B1B  
* 444    0.000054  (   29,    3)  4A1B  8B1A  
* 445    0.000047  (   16,   25)  17A1A  4B1B  
* 446    0.000047  (   25,   16)  17A1B  4B1A  
* 447   -0.000039  (   13,   30)  14A1A  9B1B  
* 448   -0.000039  (   30,   13)  14A1B  9B1A  
* 449    0.000039  (   12,   31)  13A1A  10B1B  
* 450    0.000039  (   31,   12)  13A1B  10B1A  
* 451    0.000037  (   16,   31)  17A1A  10B1B  
* 452    0.000037  (   31,   16)  17A1B  10B1A  
* 453   -0.000037  (   13,   33)  14A1A  12B1B  
* 454   -0.000037  (   33,   13)  14A1B  12B1A  
* 455    0.000035  (   13,   31)  14A1A  10B1B  
* 456    0.000035  (   31,   13)  14A1B  10B1A  
* 457    0.000035  (    6,   34)  7A1A  13B1B  
* 458    0.000035  (   34,    6)  7A1B  13B1A  
* 459   -0.000028  (   15,   33)  16A1A  12B1B  
* 460   -0.000028  (   33,   15)  16A1B  12B1A  
* 461   -0.000007  (    3,   34)  4A1A  13B1B  
* 462   -0.000007  (   34,    3)  4A1B  13B1A  
* 463    0.000001  (   12,   34)  13A1A  13B1B  
* 464    0.000001  (   34,   12)  13A1B  13B1A  


		 "A good bug is a dead bug" 

			 - Starship Troopers

		 "I didn't write FORTRAN.  That's the problem."

			 - Edward Valeev



Properties will be evaluated at   0.000000,   0.000000,   0.000000 Bohr

Properties computed using the CI density matrix

  Nuclear Dipole Moment: (a.u.)
     X:     0.0000      Y:     0.0000      Z:     0.0000

  Electronic Dipole Moment: (a.u.)
     X:     0.0000      Y:     0.2493      Z:     0.0000

  Dipole Moment: (a.u.)
     X:     0.0000      Y:     0.2493      Z:     0.0000     Total:     0.2493

  Dipole Moment: (Debye)
     X:     0.0000      Y:     0.6337      Z:     0.0000     Total:     0.6337


*** Psi4 exiting successfully. Buy a developer a beer!
