[Molden Format]
[Atoms] (AU)
LI   1    3         0.000000000000       0.000000000000      -0.386892149961
H    2    1         0.000000000000       0.000000000000       2.693361444039
[GTO]
  1 0
 s    9  1.00
     5988.0000000000         0.0001330000
      898.9000000000         0.0010250000
      205.9000000000         0.0052720000
       59.2400000000         0.0209290000
       19.8700000000         0.0663400000
        7.4060000000         0.1657750000
        2.9300000000         0.3150380000
        1.1890000000         0.3935230000
        0.4798000000         0.1908700000
 s    9  1.00
     5988.0000000000        -0.0000210000
      898.9000000000        -0.0001610000
      205.9000000000        -0.0008200000
       59.2400000000        -0.0033260000
       19.8700000000        -0.0105190000
        7.4060000000        -0.0280970000
        2.9300000000        -0.0559360000
        1.1890000000        -0.0992370000
        0.4798000000        -0.1121890000
 s    1  1.00
        0.0750900000         1.0000000000
 s    1  1.00
        0.0283200000         1.0000000000
 p    3  1.00
        3.2660000000         0.0086300000
        0.6511000000         0.0475380000
        0.1696000000         0.2097720000
 p    1  1.00
        0.0557800000         1.0000000000
 p    1  1.00
        0.0205000000         1.0000000000
 d    1  1.00
        0.1874000000         1.0000000000
 d    1  1.00
        0.0801000000         1.0000000000
 f    1  1.00
        0.1829000000         1.0000000000
 s    1  1.00
        0.0076000000         1.0000000000
 p    1  1.00
        0.0091000000         1.0000000000
 d    1  1.00
        0.0371000000         1.0000000000
 f    1  1.00
        0.0816000000         1.0000000000

  2 0
 s    3  1.00
       33.8700000000         0.0060680000
        5.0950000000         0.0453080000
        1.1590000000         0.2028220000
 s    1  1.00
        0.3258000000         1.0000000000
 s    1  1.00
        0.1027000000         1.0000000000
 p    1  1.00
        1.4070000000         1.0000000000
 p    1  1.00
        0.3880000000         1.0000000000
 d    1  1.00
        1.0570000000         1.0000000000
 s    1  1.00
        0.0252600000         1.0000000000
 p    1  1.00
        0.1020000000         1.0000000000
 d    1  1.00
        0.2470000000         1.0000000000

[5D]
[9G]

[MO]
 Sym= A1
 Ene=        -2.4492131459
 Spin= Alpha
 Occup=  2.0000
  1       0.996242977898
  2      -0.002083699719
  3      -0.045232119555
  4       0.007662450725
  5       0.000000000000
  6       0.000000000000
  7      -0.027682425410
  8       0.000000000000
  9       0.000000000000
 10      -0.017554921350
 11       0.000000000000
 12       0.000000000000
 13       0.007322068583
 14      -0.009033082874
 15       0.000000000000
 16       0.000000000000
 17      -0.000000000000
 18       0.000000000000
 19      -0.006388830559
 20       0.000000000000
 21       0.000000000000
 22       0.000000000000
 23       0.000000000000
 24      -0.004285501202
 25       0.000000000000
 26       0.000000000000
 27       0.000000000000
 28       0.000000000000
 29       0.000000000000
 30       0.000000000000
 31      -0.000431264553
 32       0.000000000000
 33       0.000000000000
 34      -0.002129035225
 35       0.001500153678
 36       0.000000000000
 37       0.000000000000
 38      -0.000000000000
 39       0.000000000000
 40       0.000484447656
 41       0.000000000000
 42       0.000000000000
 43       0.000000000000
 44       0.000000000000
 45       0.000000000000
 46       0.000000000000
 47       0.000494558698
 48       0.010185916983
 49       0.048255109222
 50       0.000000000000
 51       0.000000000000
 52       0.000612666719
 53       0.000000000000
 54       0.000000000000
 55      -0.008099377020
 56       0.000365135370
 57       0.000000000000
 58       0.000000000000
 59       0.000000000000
 60       0.000000000000
 61      -0.002966553933
 62       0.000000000000
 63       0.000000000000
 64      -0.017119822240
 65       0.002264621935
 66       0.000000000000
 67       0.000000000000
 68      -0.000000000000
 69       0.000000000000
 Sym= A1
 Ene=        -0.2996316473
 Spin= Alpha
 Occup=  2.0000
  1       0.015820582276
  2      -0.160368153919
  3      -0.285469260410
  4      -0.056146874918
  5       0.000000000000
  6       0.000000000000
  7      -0.145443127208
  8       0.000000000000
  9       0.000000000000
 10      -0.116102145545
 11       0.000000000000
 12       0.000000000000
 13       0.006693903721
 14      -0.028932793459
 15       0.000000000000
 16       0.000000000000
 17      -0.000000000000
 18       0.000000000000
 19      -0.022974355296
 20       0.000000000000
 21       0.000000000000
 22       0.000000000000
 23       0.000000000000
 24      -0.010053914473
 25       0.000000000000
 26       0.000000000000
 27      -0.000000000000
 28       0.000000000000
 29       0.000000000000
 30       0.000000000000
 31       0.005844708704
 32       0.000000000000
 33       0.000000000000
 34      -0.001010281681
 35      -0.006235477255
 36       0.000000000000
 37       0.000000000000
 38      -0.000000000000
 39       0.000000000000
 40      -0.004869112594
 41       0.000000000000
 42       0.000000000000
 43       0.000000000000
 44       0.000000000000
 45       0.000000000000
 46       0.000000000000
 47      -0.167484265184
 48      -0.287615829582
 49      -0.266947357643
 50       0.000000000000
 51       0.000000000000
 52       0.002890533742
 53       0.000000000000
 54       0.000000000000
 55       0.009703932618
 56      -0.001319888062
 57       0.000000000000
 58       0.000000000000
 59      -0.000000000000
 60       0.000000000000
 61      -0.049062188103
 62       0.000000000000
 63       0.000000000000
 64       0.002724084918
 65      -0.006640393766
 66       0.000000000000
 67       0.000000000000
 68      -0.000000000000
 69       0.000000000000
 Sym= A1
 Ene=        -0.0077681166
 Spin= Alpha
 Occup=  0.0000
  1       0.002024340795
  2      -0.073069194932
  3      -0.005874519990
  4      -0.094114375904
  5       0.000000000000
  6       0.000000000000
  7       0.072517234812
  8       0.000000000000
  9       0.000000000000
 10       0.239414067274
 11       0.000000000000
 12       0.000000000000
 13       0.173282714375
 14      -0.008016379975
 15       0.000000000000
 16       0.000000000000
 17      -0.000000000000
 18       0.000000000000
 19       0.032989711641
 20       0.000000000000
 21       0.000000000000
 22       0.000000000000
 23       0.000000000000
 24      -0.001666021651
 25       0.000000000000
 26       0.000000000000
 27      -0.000000000000
 28       0.000000000000
 29       0.000000000000
 30       0.000000000000
 31      -0.623252366987
 32       0.000000000000
 33       0.000000000000
 34       0.333856543265
 35      -0.059199161397
 36       0.000000000000
 37       0.000000000000
 38      -0.000000000000
 39       0.000000000000
 40       0.010216791391
 41       0.000000000000
 42       0.000000000000
 43       0.000000000000
 44       0.000000000000
 45       0.000000000000
 46       0.000000000000
 47       0.023474169129
 48       0.049813811959
 49      -0.041671743336
 50       0.000000000000
 51       0.000000000000
 52       0.000001445067
 53       0.000000000000
 54       0.000000000000
 55      -0.002620354278
 56       0.000296607613
 57       0.000000000000
 58       0.000000000000
 59       0.000000000000
 60       0.000000000000
 61      -0.066348801917
 62       0.000000000000
 63       0.000000000000
 64       0.020526997335
 65       0.001159833763
 66       0.000000000000
 67       0.000000000000
 68      -0.000000000000
 69       0.000000000000
 Sym= B2
 Ene=         0.0160817783
 Spin= Alpha
 Occup=  0.0000
  1       0.000000000000
  2       0.000000000000
  3       0.000000000000
  4       0.000000000000
  5       0.000000000000
  6       0.017565977756
  7       0.000000000000
  8       0.000000000000
  9       0.179150870003
 10       0.000000000000
 11       0.000000000000
 12      -0.404786784524
 13       0.000000000000
 14       0.000000000000
 15       0.000000000000
 16      -0.009575643779
 17       0.000000000000
 18       0.000000000000
 19       0.000000000000
 20       0.000000000000
 21       0.058797362624
 22       0.000000000000
 23       0.000000000000
 24       0.000000000000
 25       0.000000000000
 26       0.003222591224
 27       0.000000000000
 28       0.000000000000
 29       0.000000000000
 30       0.000000000000
 31       0.000000000000
 32       0.000000000000
 33       1.246855875476
 34       0.000000000000
 35       0.000000000000
 36       0.000000000000
 37      -0.133414813980
 38       0.000000000000
 39       0.000000000000
 40       0.000000000000
 41       0.000000000000
 42       0.014060919408
 43       0.000000000000
 44       0.000000000000
 45       0.000000000000
 46      -0.000000000000
 47       0.000000000000
 48       0.000000000000
 49       0.000000000000
 50       0.000000000000
 51       0.000825018912
 52       0.000000000000
 53       0.000000000000
 54      -0.000380107581
 55       0.000000000000
 56       0.000000000000
 57       0.000000000000
 58      -0.000893471582
 59       0.000000000000
 60       0.000000000000
 61       0.000000000000
 62       0.000000000000
 63      -0.033873011154
 64       0.000000000000
 65       0.000000000000
 66       0.000000000000
 67       0.006768381548
 68       0.000000000000
 69       0.000000000000
 Sym= B1
 Ene=         0.0160817783
 Spin= Alpha
 Occup=  0.0000
  1       0.000000000000
  2       0.000000000000
  3       0.000000000000
  4       0.000000000000
  5       0.017565977756
  6       0.000000000000
  7       0.000000000000
  8       0.179150870003
  9       0.000000000000
 10       0.000000000000
 11      -0.404786784524
 12       0.000000000000
 13       0.000000000000
 14       0.000000000000
 15      -0.009575643779
 16       0.000000000000
 17       0.000000000000
 18       0.000000000000
 19       0.000000000000
 20       0.058797362624
 21       0.000000000000
 22       0.000000000000
 23       0.000000000000
 24       0.000000000000
 25       0.003222591224
 26       0.000000000000
 27       0.000000000000
 28       0.000000000000
 29      -0.000000000000
 30       0.000000000000
 31       0.000000000000
 32       1.246855875476
 33       0.000000000000
 34       0.000000000000
 35       0.000000000000
 36      -0.133414813980
 37       0.000000000000
 38       0.000000000000
 39       0.000000000000
 40       0.000000000000
 41       0.014060919408
 42       0.000000000000
 43       0.000000000000
 44       0.000000000000
 45      -0.000000000000
 46       0.000000000000
 47       0.000000000000
 48       0.000000000000
 49       0.000000000000
 50       0.000825018912
 51       0.000000000000
 52       0.000000000000
 53      -0.000380107581
 54       0.000000000000
 55       0.000000000000
 56       0.000000000000
 57      -0.000893471582
 58       0.000000000000
 59       0.000000000000
 60       0.000000000000
 61       0.000000000000
 62      -0.033873011154
 63       0.000000000000
 64       0.000000000000
 65       0.000000000000
 66       0.006768381548
 67       0.000000000000
 68       0.000000000000
 69       0.000000000000
 Sym= A1
 Ene=         0.0235307744
 Spin= Alpha
 Occup=  0.0000
  1       0.007018810228
  2       0.097639353347
  3       0.193523495620
  4      -1.053146357649
  5       0.000000000000
  6       0.000000000000
  7      -0.066765373573
  8       0.000000000000
  9       0.000000000000
 10       0.016048416857
 11       0.000000000000
 12       0.000000000000
 13      -2.151626027743
 14      -0.023905176278
 15       0.000000000000
 16       0.000000000000
 17      -0.000000000000
 18       0.000000000000
 19       0.191874722236
 20       0.000000000000
 21       0.000000000000
 22       0.000000000000
 23       0.000000000000
 24       0.006043331923
 25       0.000000000000
 26       0.000000000000
 27       0.000000000000
 28       0.000000000000
 29       0.000000000000
 30       0.000000000000
 31      -1.545248358888
 32       0.000000000000
 33       0.000000000000
 34       1.000248834177
 35      -0.313903144951
 36       0.000000000000
 37       0.000000000000
 38       0.000000000000
 39       0.000000000000
 40       0.001643795672
 41       0.000000000000
 42       0.000000000000
 43      -0.000000000000
 44       0.000000000000
 45       0.000000000000
 46       0.000000000000
 47      -0.017608205890
 48      -0.019073714695
 49      -0.252328723670
 50       0.000000000000
 51       0.000000000000
 52       0.000254317027
 53       0.000000000000
 54       0.000000000000
 55      -0.003024590267
 56      -0.000371968953
 57       0.000000000000
 58       0.000000000000
 59       0.000000000000
 60       0.000000000000
 61       2.858198847914
 62       0.000000000000
 63       0.000000000000
 64       0.017598713588
 65       0.003957188140
 66       0.000000000000
 67       0.000000000000
 68      -0.000000000000
 69       0.000000000000
 Sym= A1
 Ene=         0.0261451411
 Spin= Alpha
 Occup=  0.0000
  1       0.001626061880
  2       0.003862841217
  3      -0.357102248500
  4      -1.378238364239
  5       0.000000000000
  6       0.000000000000
  7      -0.014031158031
  8       0.000000000000
  9       0.000000000000
 10      -0.601070281951
 11       0.000000000000
 12       0.000000000000
 13       0.024773725585
 14       0.004164405124
 15       0.000000000000
 16       0.000000000000
 17       0.000000000000
 18       0.000000000000
 19      -0.134903082756
 20       0.000000000000
 21       0.000000000000
 22       0.000000000000
 23       0.000000000000
 24       0.015914374344
 25       0.000000000000
 26       0.000000000000
 27       0.000000000000
 28       0.000000000000
 29       0.000000000000
 30       0.000000000000
 31      -1.028186109567
 32       0.000000000000
 33       0.000000000000
 34      -1.314002065327
 35      -0.094591361051
 36       0.000000000000
 37       0.000000000000
 38      -0.000000000000
 39       0.000000000000
 40      -0.062512951911
 41       0.000000000000
 42       0.000000000000
 43      -0.000000000000
 44       0.000000000000
 45       0.000000000000
 46       0.000000000000
 47       0.017814743208
 48      -0.024541610756
 49       0.667737380850
 50       0.000000000000
 51       0.000000000000
 52      -0.000820781509
 53       0.000000000000
 54       0.000000000000
 55       0.006616849399
 56      -0.000724222410
 57       0.000000000000
 58       0.000000000000
 59      -0.000000000000
 60       0.000000000000
 61       2.076131024636
 62       0.000000000000
 63       0.000000000000
 64      -0.175462278832
 65       0.011460554434
 66       0.000000000000
 67       0.000000000000
 68      -0.000000000000
 69       0.000000000000
 Sym= B2
 Ene=         0.0517358713
 Spin= Alpha
 Occup=  0.0000
  1       0.000000000000
  2       0.000000000000
  3       0.000000000000
  4       0.000000000000
  5       0.000000000000
  6       0.097185909830
  7       0.000000000000
  8       0.000000000000
  9      -0.245594861706
 10       0.000000000000
 11       0.000000000000
 12       1.812720464430
 13       0.000000000000
 14       0.000000000000
 15       0.000000000000
 16      -0.042064082584
 17       0.000000000000
 18       0.000000000000
 19       0.000000000000
 20       0.000000000000
 21      -0.020136955737
 22       0.000000000000
 23       0.000000000000
 24       0.000000000000
 25       0.000000000000
 26      -0.012794654126
 27       0.000000000000
 28       0.000000000000
 29       0.000000000000
 30      -0.000000000000
 31       0.000000000000
 32       0.000000000000
 33      -1.342657347745
 34       0.000000000000
 35       0.000000000000
 36       0.000000000000
 37      -0.296780093174
 38       0.000000000000
 39       0.000000000000
 40       0.000000000000
 41       0.000000000000
 42      -0.026554155469
 43       0.000000000000
 44       0.000000000000
 45       0.000000000000
 46       0.000000000000
 47       0.000000000000
 48       0.000000000000
 49       0.000000000000
 50       0.000000000000
 51       0.000870918261
 52       0.000000000000
 53       0.000000000000
 54       0.006125217524
 55       0.000000000000
 56       0.000000000000
 57       0.000000000000
 58       0.001269172147
 59       0.000000000000
 60       0.000000000000
 61       0.000000000000
 62       0.000000000000
 63       0.140555886216
 64       0.000000000000
 65       0.000000000000
 66       0.000000000000
 67      -0.023994959674
 68       0.000000000000
 69       0.000000000000
 Sym= B1
 Ene=         0.0517358713
 Spin= Alpha
 Occup=  0.0000
  1       0.000000000000
  2       0.000000000000
  3       0.000000000000
  4       0.000000000000
  5       0.097185909830
  6       0.000000000000
  7       0.000000000000
  8      -0.245594861706
  9       0.000000000000
 10       0.000000000000
 11       1.812720464430
 12       0.000000000000
 13       0.000000000000
 14       0.000000000000
 15      -0.042064082584
 16       0.000000000000
 17       0.000000000000
 18       0.000000000000
 19       0.000000000000
 20      -0.020136955737
 21       0.000000000000
 22       0.000000000000
 23       0.000000000000
 24       0.000000000000
 25      -0.012794654126
 26       0.000000000000
 27       0.000000000000
 28       0.000000000000
 29      -0.000000000000
 30       0.000000000000
 31       0.000000000000
 32      -1.342657347745
 33       0.000000000000
 34       0.000000000000
 35       0.000000000000
 36      -0.296780093174
 37       0.000000000000
 38       0.000000000000
 39       0.000000000000
 40       0.000000000000
 41      -0.026554155469
 42       0.000000000000
 43       0.000000000000
 44       0.000000000000
 45       0.000000000000
 46       0.000000000000
 47       0.000000000000
 48       0.000000000000
 49       0.000000000000
 50       0.000870918261
 51       0.000000000000
 52       0.000000000000
 53       0.006125217524
 54       0.000000000000
 55       0.000000000000
 56       0.000000000000
 57       0.001269172147
 58       0.000000000000
 59       0.000000000000
 60       0.000000000000
 61       0.000000000000
 62       0.140555886216
 63       0.000000000000
 64       0.000000000000
 65       0.000000000000
 66      -0.023994959674
 67       0.000000000000
 68       0.000000000000
 69       0.000000000000
 Sym= A1
 Ene=         0.0766227481
 Spin= Alpha
 Occup=  0.0000
  1       0.029495046468
  2      -0.049737063381
  3       0.794591802500
  4      -5.916515207042
  5       0.000000000000
  6       0.000000000000
  7       0.121045983273
  8       0.000000000000
  9       0.000000000000
 10       0.589633860349
 11       0.000000000000
 12       0.000000000000
 13      -4.238864339307
 14       0.063147491907
 15       0.000000000000
 16       0.000000000000
 17      -0.000000000000
 18       0.000000000000
 19      -0.027366020588
 20       0.000000000000
 21       0.000000000000
 22       0.000000000000
 23       0.000000000000
 24       0.042671619871
 25       0.000000000000
 26       0.000000000000
 27      -0.000000000000
 28       0.000000000000
 29       0.000000000000
 30       0.000000000000
 31      -0.530470064932
 32       0.000000000000
 33       0.000000000000
 34       1.055604902923
 35      -0.140167142697
 36       0.000000000000
 37       0.000000000000
 38      -0.000000000000
 39       0.000000000000
 40      -0.108013435808
 41       0.000000000000
 42       0.000000000000
 43       0.000000000000
 44       0.000000000000
 45       0.000000000000
 46       0.000000000000
 47       0.029399934775
 48       0.024673696110
 49      -0.144216696862
 50       0.000000000000
 51       0.000000000000
 52      -0.003828529523
 53       0.000000000000
 54       0.000000000000
 55       0.036189648751
 56       0.001417218187
 57       0.000000000000
 58       0.000000000000
 59       0.000000000000
 60       0.000000000000
 61       6.278345699907
 62       0.000000000000
 63       0.000000000000
 64       0.155689336651
 65      -0.023154742251
 66       0.000000000000
 67       0.000000000000
 68      -0.000000000000
 69       0.000000000000
 Sym= A1
 Ene=         0.1002303836
 Spin= Alpha
 Occup=  0.0000
  1       0.005128216904
  2      -0.065259667796
  3      -0.462873557078
  4      -7.296153098632
  5       0.000000000000
  6       0.000000000000
  7      -0.053396852634
  8       0.000000000000
  9       0.000000000000
 10      -1.105550072329
 11       0.000000000000
 12       0.000000000000
 13      -3.027716136790
 14      -0.103743459796
 15       0.000000000000
 16       0.000000000000
 17      -0.000000000000
 18       0.000000000000
 19       0.114184775889
 20       0.000000000000
 21       0.000000000000
 22       0.000000000000
 23       0.000000000000
 24       0.019952450937
 25       0.000000000000
 26       0.000000000000
 27      -0.000000000000
 28       0.000000000000
 29       0.000000000000
 30       0.000000000000
 31      -1.461133816432
 32       0.000000000000
 33       0.000000000000
 34      -0.229951336021
 35      -1.546757583260
 36       0.000000000000
 37       0.000000000000
 38      -0.000000000000
 39       0.000000000000
 40      -0.101918730330
 41       0.000000000000
 42       0.000000000000
 43       0.000000000000
 44       0.000000000000
 45       0.000000000000
 46       0.000000000000
 47      -0.026103409110
 48      -0.136078086786
 49       1.009577667663
 50       0.000000000000
 51       0.000000000000
 52       0.002562241593
 53       0.000000000000
 54       0.000000000000
 55      -0.009104646364
 56      -0.000802898751
 57       0.000000000000
 58       0.000000000000
 59       0.000000000000
 60       0.000000000000
 61       9.500886753892
 62       0.000000000000
 63       0.000000000000
 64      -0.240338579341
 65       0.019872831494
 66       0.000000000000
 67       0.000000000000
 68      -0.000000000000
 69       0.000000000000
 Sym= A1
 Ene=         0.1044779235
 Spin= Alpha
 Occup=  0.0000
  1       0.000000000000
  2      -0.000000000000
  3      -0.000000000000
  4      -0.000000000000
  5       0.000000000000
  6       0.000000000000
  7       0.000000000000
  8       0.000000000000
  9       0.000000000000
 10      -0.000000000000
 11       0.000000000000
 12       0.000000000000
 13      -0.000000000000
 14      -0.000000000000
 15       0.000000000000
 16       0.000000000000
 17       0.118886880680
 18       0.000000000000
 19       0.000000000000
 20       0.000000000000
 21       0.000000000000
 22      -0.484905470554
 23       0.000000000000
 24      -0.000000000000
 25       0.000000000000
 26       0.000000000000
 27       0.017010662301
 28       0.000000000000
 29       0.000000000000
 30       0.000000000000
 31      -0.000000000000
 32       0.000000000000
 33       0.000000000000
 34       0.000000000000
 35      -0.000000000000
 36       0.000000000000
 37       0.000000000000
 38       1.303727490301
 39       0.000000000000
 40       0.000000000000
 41       0.000000000000
 42       0.000000000000
 43      -0.090348297093
 44       0.000000000000
 45       0.000000000000
 46       0.000000000000
 47      -0.000000000000
 48      -0.000000000000
 49      -0.000000000000
 50       0.000000000000
 51       0.000000000000
 52      -0.000000000000
 53       0.000000000000
 54       0.000000000000
 55      -0.000000000000
 56      -0.000000000000
 57       0.000000000000
 58       0.000000000000
 59      -0.001045762159
 60       0.000000000000
 61       0.000000000000
 62       0.000000000000
 63       0.000000000000
 64      -0.000000000000
 65       0.000000000000
 66       0.000000000000
 67       0.000000000000
 68       0.009369485055
 69       0.000000000000
 Sym= A2
 Ene=         0.1044779235
 Spin= Alpha
 Occup=  0.0000
  1       0.000000000000
  2       0.000000000000
  3       0.000000000000
  4       0.000000000000
  5       0.000000000000
  6       0.000000000000
  7       0.000000000000
  8       0.000000000000
  9       0.000000000000
 10       0.000000000000
 11       0.000000000000
 12       0.000000000000
 13       0.000000000000
 14       0.000000000000
 15       0.000000000000
 16       0.000000000000
 17       0.000000000000
 18       0.118886880680
 19       0.000000000000
 20       0.000000000000
 21       0.000000000000
 22       0.000000000000
 23      -0.484905470554
 24       0.000000000000
 25       0.000000000000
 26       0.000000000000
 27       0.000000000000
 28       0.017010662301
 29       0.000000000000
 30       0.000000000000
 31       0.000000000000
 32       0.000000000000
 33       0.000000000000
 34       0.000000000000
 35       0.000000000000
 36       0.000000000000
 37       0.000000000000
 38       0.000000000000
 39       1.303727490301
 40       0.000000000000
 41       0.000000000000
 42       0.000000000000
 43       0.000000000000
 44      -0.090348297093
 45       0.000000000000
 46       0.000000000000
 47       0.000000000000
 48       0.000000000000
 49       0.000000000000
 50       0.000000000000
 51       0.000000000000
 52       0.000000000000
 53       0.000000000000
 54       0.000000000000
 55       0.000000000000
 56       0.000000000000
 57       0.000000000000
 58       0.000000000000
 59       0.000000000000
 60      -0.001045762159
 61       0.000000000000
 62       0.000000000000
 63       0.000000000000
 64       0.000000000000
 65       0.000000000000
 66       0.000000000000
 67       0.000000000000
 68       0.000000000000
 69       0.009369485055
 Sym= B1
 Ene=         0.1124356867
 Spin= Alpha
 Occup=  0.0000
  1       0.000000000000
  2       0.000000000000
  3       0.000000000000
  4       0.000000000000
  5       0.068474392119
  6       0.000000000000
  7       0.000000000000
  8       0.082738500410
  9       0.000000000000
 10       0.000000000000
 11       0.344880068015
 12       0.000000000000
 13       0.000000000000
 14       0.000000000000
 15       0.139408610092
 16       0.000000000000
 17       0.000000000000
 18       0.000000000000
 19       0.000000000000
 20      -0.454564160371
 21       0.000000000000
 22       0.000000000000
 23       0.000000000000
 24       0.000000000000
 25       0.037935514335
 26       0.000000000000
 27       0.000000000000
 28       0.000000000000
 29      -0.000000000000
 30       0.000000000000
 31       0.000000000000
 32      -0.177268766307
 33       0.000000000000
 34       0.000000000000
 35       0.000000000000
 36       1.268496051324
 37       0.000000000000
 38       0.000000000000
 39       0.000000000000
 40       0.000000000000
 41      -0.095201760104
 42       0.000000000000
 43       0.000000000000
 44       0.000000000000
 45       0.000000000000
 46       0.000000000000
 47       0.000000000000
 48       0.000000000000
 49       0.000000000000
 50      -0.000392985838
 51       0.000000000000
 52       0.000000000000
 53       0.014985663638
 54       0.000000000000
 55       0.000000000000
 56       0.000000000000
 57       0.000454285097
 58       0.000000000000
 59       0.000000000000
 60       0.000000000000
 61       0.000000000000
 62      -0.086175668362
 63       0.000000000000
 64       0.000000000000
 65       0.000000000000
 66       0.029207095155
 67       0.000000000000
 68       0.000000000000
 69       0.000000000000
 Sym= B2
 Ene=         0.1124356867
 Spin= Alpha
 Occup=  0.0000
  1       0.000000000000
  2       0.000000000000
  3       0.000000000000
  4       0.000000000000
  5       0.000000000000
  6       0.068474392119
  7       0.000000000000
  8       0.000000000000
  9       0.082738500410
 10       0.000000000000
 11       0.000000000000
 12       0.344880068015
 13       0.000000000000
 14       0.000000000000
 15       0.000000000000
 16       0.139408610092
 17       0.000000000000
 18       0.000000000000
 19       0.000000000000
 20       0.000000000000
 21      -0.454564160371
 22       0.000000000000
 23       0.000000000000
 24       0.000000000000
 25       0.000000000000
 26       0.037935514335
 27       0.000000000000
 28       0.000000000000
 29       0.000000000000
 30       0.000000000000
 31       0.000000000000
 32       0.000000000000
 33      -0.177268766307
 34       0.000000000000
 35       0.000000000000
 36       0.000000000000
 37       1.268496051324
 38       0.000000000000
 39       0.000000000000
 40       0.000000000000
 41       0.000000000000
 42      -0.095201760104
 43       0.000000000000
 44       0.000000000000
 45       0.000000000000
 46      -0.000000000000
 47       0.000000000000
 48       0.000000000000
 49       0.000000000000
 50       0.000000000000
 51      -0.000392985838
 52       0.000000000000
 53       0.000000000000
 54       0.014985663638
 55       0.000000000000
 56       0.000000000000
 57       0.000000000000
 58       0.000454285097
 59       0.000000000000
 60       0.000000000000
 61       0.000000000000
 62       0.000000000000
 63      -0.086175668362
 64       0.000000000000
 65       0.000000000000
 66       0.000000000000
 67       0.029207095155
 68       0.000000000000
 69       0.000000000000
 Sym= A1
 Ene=         0.1176060251
 Spin= Alpha
 Occup=  0.0000
  1       0.005327693183
  2       0.047818007153
  3      -1.311611984833
  4      -0.628901337273
  5       0.000000000000
  6       0.000000000000
  7      -0.184617233324
  8       0.000000000000
  9       0.000000000000
 10      -2.514072731993
 11       0.000000000000
 12       0.000000000000
 13       2.214952766944
 14       0.120801982963
 15       0.000000000000
 16       0.000000000000
 17       0.000000000000
 18       0.000000000000
 19      -0.894170113294
 20       0.000000000000
 21       0.000000000000
 22      -0.000000000000
 23       0.000000000000
 24       0.061451721361
 25       0.000000000000
 26       0.000000000000
 27      -0.000000000000
 28       0.000000000000
 29       0.000000000000