[Molden Format]
[Atoms] Angs
H     1    1         0.0000000000        0.0000000000       -0.5240102762
H     2    1         0.0000000000        0.0000000000        0.5240102762
[GTO]
  1 0
 s    4  1.00
  0.1301000000D+02  0.1968498999D-01
  0.1962000000D+01  0.1379769298D+00
  0.4446000000D+00  0.4781477569D+00
  0.1220000000D+00  0.5012397451D+00
 s    4  1.00
  0.1301000000D+02  0.0000000000D+00
  0.1962000000D+01  0.0000000000D+00
  0.4446000000D+00  0.0000000000D+00
  0.1220000000D+00  0.1000000000D+01
 p    1  1.00
  0.7270000000D+00  0.1000000000D+01
  
  2 0
 s    4  1.00
  0.1301000000D+02  0.1968498999D-01
  0.1962000000D+01  0.1379769298D+00
  0.4446000000D+00  0.4781477569D+00
  0.1220000000D+00  0.5012397451D+00
 s    4  1.00
  0.1301000000D+02  0.0000000000D+00
  0.1962000000D+01  0.0000000000D+00
  0.4446000000D+00  0.0000000000D+00
  0.1220000000D+00  0.1000000000D+01
 p    1  1.00
  0.7270000000D+00  0.1000000000D+01
 
 
[MO]
 Sym=      1.1
 Ene=      -1.1052
 Spin= Alpha
 Occup=    1.000000
1 0.81888475288939
2 -0.28726353593568
3 0.0
4 0.0
5 0.050183678856829
6 0.81888475288939
7 -0.28726353593568
8 0.0
9 0.0
10 -0.050183678856829
 Sym=      1.5
 Ene=      -0.2783
 Spin= Alpha
 Occup=    0.000000
1 0.74091057001805
2 0.55671601155747
3 0.0
4 0.0
5 -0.022152319863366
6 -0.74091057001805
7 -0.55671601155747
8 0.0
9 0.0
10 -0.022152319863366
 Sym=      2.1
 Ene=       0.1285
 Spin= Alpha
 Occup=    0.000000
1 -1.19670870388126
2 1.35799904380138
3 0.0
4 0.0
5 -0.089276365706728
6 -1.19670870388126
7 1.35799904380138
8 0.0
9 0.0
10 0.089276365706728
 Sym=      2.5
 Ene=       0.3151
 Spin= Alpha
 Occup=    0.000000
1 -1.56023451586213
2 2.46376189154231
3 0.0
4 0.0
5 0.11852053638109
6 1.56023451586213
7 -2.46376189154231
8 0.0
9 0.0
10 0.11852053638109
 Sym=      1.2
 Ene=       0.7488
 Spin= Alpha
 Occup=    0.000000
1 0.0
2 0.0
3 0.63491630054106
4 0.0
5 0.0
6 0.0
7 0.0
8 0.63491630054106
9 0.0
10 0.0
 Sym=      1.3
 Ene=       0.7488
 Spin= Alpha
 Occup=    0.000000
1 0.0
2 0.0
3 0.0
4 0.63491630054106
5 0.0
6 0.0
7 0.0
8 0.0
9 0.63491630054106
10 0.0
 Sym=      3.1
 Ene=       1.0823
 Spin= Alpha
 Occup=    0.000000
1 -0.73781992417603
2 0.59141638430955
3 0.0
4 0.0
5 0.61265319805578
6 -0.73781992417603
7 0.59141638430955
8 0.0
9 0.0
10 -0.61265319805578
 Sym=      1.6
 Ene=       1.3225
 Spin= Alpha
 Occup=    0.000000
1 0.0
2 0.0
3 0.81128295669703
4 0.0
5 0.0
6 0.0
7 0.0
8 -0.81128295669703
9 0.0
10 0.0
 Sym=      1.7
 Ene=       1.3225
 Spin= Alpha
 Occup=    0.000000
1 0.0
2 0.0
3 0.0
4 0.81128295669703
5 0.0
6 0.0
7 0.0
8 0.0
9 -0.81128295669703
10 0.0
 Sym=      3.5
 Ene=       2.1227
 Spin= Alpha
 Occup=    0.000000
1 1.22639274981946
2 -0.22127341430477
3 0.0
4 0.0
5 1.31145822278432
6 -1.22639274981946
7 0.22127341430477
8 0.0
9 0.0
10 1.31145822278432
