 Entering Gaussian System, Link 0=g09
 Initial command:
 /usr/remote/Gaussian//g09/l1.exe /opt/g09_scratch/vincpohl.20985/Gau-21089.inp -scrdir=/opt/g09_scratch/vincpohl.20985/
 Entering Link 1 = /usr/remote/Gaussian//g09/l1.exe PID=     21091.
  
 Copyright (c) 1988,1990,1992,1993,1995,1998,2003,2009, Gaussian, Inc.
                  All Rights Reserved.
  
 This is part of the Gaussian(R) 09 program.  It is based on
 the Gaussian(R) 03 system (copyright 2003, Gaussian, Inc.),
 the Gaussian(R) 98 system (copyright 1998, Gaussian, Inc.),
 the Gaussian(R) 94 system (copyright 1995, Gaussian, Inc.),
 the Gaussian 92(TM) system (copyright 1992, Gaussian, Inc.),
 the Gaussian 90(TM) system (copyright 1990, Gaussian, Inc.),
 the Gaussian 88(TM) system (copyright 1988, Gaussian, Inc.),
 the Gaussian 86(TM) system (copyright 1986, Carnegie Mellon
 University), and the Gaussian 82(TM) system (copyright 1983,
 Carnegie Mellon University). Gaussian is a federally registered
 trademark of Gaussian, Inc.
  
 This software contains proprietary and confidential information,
 including trade secrets, belonging to Gaussian, Inc.
  
 This software is provided under written license and may be
 used, copied, transmitted, or stored only in accord with that
 written license.
  
 The following legend is applicable only to US Government
 contracts under FAR:
  
                    RESTRICTED RIGHTS LEGEND
  
 Use, reproduction and disclosure by the US Government is
 subject to restrictions as set forth in subparagraphs (a)
 and (c) of the Commercial Computer Software - Restricted
 Rights clause in FAR 52.227-19.
  
 Gaussian, Inc.
 340 Quinnipiac St., Bldg. 40, Wallingford CT 06492
  
  
 ---------------------------------------------------------------
 Warning -- This program may not be used in any manner that
 competes with the business of Gaussian, Inc. or will provide
 assistance to any competitor of Gaussian, Inc.  The licensee
 of this program is prohibited from giving any competitor of
 Gaussian, Inc. access to this program.  By using this program,
 the user acknowledges that Gaussian, Inc. is engaged in the
 business of creating and licensing software in the field of
 computational chemistry and represents and warrants to the
 licensee that it is not a competitor of Gaussian, Inc. and that
 it will not use this program in any manner prohibited above.
 ---------------------------------------------------------------
  

 Cite this work as:
 Gaussian 09, Revision A.02,
 M. J. Frisch, G. W. Trucks, H. B. Schlegel, G. E. Scuseria, 
 M. A. Robb, J. R. Cheeseman, G. Scalmani, V. Barone, B. Mennucci, 
 G. A. Petersson, H. Nakatsuji, M. Caricato, X. Li, H. P. Hratchian, 
 A. F. Izmaylov, J. Bloino, G. Zheng, J. L. Sonnenberg, M. Hada, 
 M. Ehara, K. Toyota, R. Fukuda, J. Hasegawa, M. Ishida, T. Nakajima, 
 Y. Honda, O. Kitao, H. Nakai, T. Vreven, J. A. Montgomery, Jr., 
 J. E. Peralta, F. Ogliaro, M. Bearpark, J. J. Heyd, E. Brothers, 
 K. N. Kudin, V. N. Staroverov, R. Kobayashi, J. Normand, 
 K. Raghavachari, A. Rendell, J. C. Burant, S. S. Iyengar, J. Tomasi, 
 M. Cossi, N. Rega, J. M. Millam, M. Klene, J. E. Knox, J. B. Cross, 
 V. Bakken, C. Adamo, J. Jaramillo, R. Gomperts, R. E. Stratmann, 
 O. Yazyev, A. J. Austin, R. Cammi, C. Pomelli, J. W. Ochterski, 
 R. L. Martin, K. Morokuma, V. G. Zakrzewski, G. A. Voth, 
 P. Salvador, J. J. Dannenberg, S. Dapprich, A. D. Daniels, 
 O. Farkas, J. B. Foresman, J. V. Ortiz, J. Cioslowski, 
 and D. J. Fox, Gaussian, Inc., Wallingford CT, 2009.
 
 ******************************************
 Gaussian 09:  AM64L-G09RevA.02 11-Jun-2009
                28-Sep-2015 
 ******************************************
 %NProcShared=2
 Will use up to    2 processors via shared memory.
 %Chk=h2o_rhf_sph
 ---------------------------------
 #n RHF/cc-pVDZ gfinput IOP(6/7=3)
 ---------------------------------
 1/38=1/1;
 2/12=2,17=6,18=5,40=1/2;
 3/5=16,11=1,16=1,24=10,25=1,30=1,116=1/1,2,3;
 4//1;
 5/5=2,38=5/2;
 6/7=3,8=2,9=2,10=2,28=1/1;
 99/5=1,9=1/99;
 ---------------
 RHF/cc-pVDZ H2O
 ---------------
 Symbolic Z-matrix:
 Charge =  0 Multiplicity = 1
 H                     0.       -0.89014   0.55869 
 O                     0.        0.       -0.07039 
 H                     0.        0.89014   0.55869 
 
                          Input orientation:                          
 ---------------------------------------------------------------------
 Center     Atomic      Atomic             Coordinates (Angstroms)
 Number     Number       Type             X           Y           Z
 ---------------------------------------------------------------------
      1          1           0        0.000000   -0.890139    0.558694
      2          8           0        0.000000    0.000000   -0.070394
      3          1           0        0.000000    0.890139    0.558694
 ---------------------------------------------------------------------
                    Distance matrix (angstroms):
                    1          2          3
     1  H    0.000000
     2  O    1.090000   0.000000
     3  H    1.780279   1.090000   0.000000
 Stoichiometry    H2O
 Framework group  C2V[C2(O),SGV(H2)]
 Deg. of freedom     2
 Full point group                 C2V     NOp   4
 Largest Abelian subgroup         C2V     NOp   4
 Largest concise Abelian subgroup C2      NOp   2
                         Standard orientation:                         
 ---------------------------------------------------------------------
 Center     Atomic      Atomic             Coordinates (Angstroms)
 Number     Number       Type             X           Y           Z
 ---------------------------------------------------------------------
      1          1           0        0.000000    0.890139   -0.503271
      2          8           0        0.000000    0.000000    0.125818
      3          1           0        0.000000   -0.890139   -0.503271
 ---------------------------------------------------------------------
 Rotational constants (GHZ):    713.3855425    316.4361636    219.2039485
 Standard basis: CC-pVDZ (5D, 7F)
 AO basis set in the form of general basis input (Overlap normalization):
      1 0
 S   3 1.00       0.000000000000
      0.1301000000D+02  0.3349872639D-01
      0.1962000000D+01  0.2348008012D+00
      0.4446000000D+00  0.8136829579D+00
 S   1 1.00       0.000000000000
      0.1220000000D+00  0.1000000000D+01
 P   1 1.00       0.000000000000
      0.7270000000D+00  0.1000000000D+01
 ****
      2 0
 S   7 1.00       0.000000000000
      0.1172000000D+05  0.7118644339D-03
      0.1759000000D+04  0.5485201992D-02
      0.4008000000D+03  0.2790992963D-01
      0.1137000000D+03  0.1051332075D+00
      0.3703000000D+02  0.2840024898D+00
      0.1327000000D+02  0.4516739459D+00
      0.5025000000D+01  0.2732081255D+00
 S   7 1.00       0.000000000000
      0.1172000000D+05  0.7690300460D-05
      0.4008000000D+03  0.3134845790D-03
      0.1137000000D+03 -0.2966148530D-02
      0.3703000000D+02 -0.1087535430D-01
      0.1327000000D+02 -0.1207538168D+00
      0.5025000000D+01 -0.1062752639D+00
      0.1013000000D+01  0.1095975478D+01
 S   1 1.00       0.000000000000
      0.3023000000D+00  0.1000000000D+01
 P   3 1.00       0.000000000000
      0.1770000000D+02  0.6267916628D-01
      0.3854000000D+01  0.3335365659D+00
      0.1046000000D+01  0.7412396416D+00
 P   1 1.00       0.000000000000
      0.2753000000D+00  0.1000000000D+01
 D   1 1.00       0.000000000000
      0.1185000000D+01  0.1000000000D+01
 ****
      3 0
 S   3 1.00       0.000000000000
      0.1301000000D+02  0.3349872639D-01
      0.1962000000D+01  0.2348008012D+00
      0.4446000000D+00  0.8136829579D+00
 S   1 1.00       0.000000000000
      0.1220000000D+00  0.1000000000D+01
 P   1 1.00       0.000000000000
      0.7270000000D+00  0.1000000000D+01
 ****

 There are    11 symmetry adapted basis functions of A1  symmetry.
 There are     2 symmetry adapted basis functions of A2  symmetry.
 There are     4 symmetry adapted basis functions of B1  symmetry.
 There are     7 symmetry adapted basis functions of B2  symmetry.
 Integral buffers will be    131072 words long.
 Raffenetti 1 integral format.
 Two-electron integral symmetry is turned on.
    24 basis functions,    47 primitive gaussians,    25 cartesian basis functions
     5 alpha electrons        5 beta electrons
       nuclear repulsion energy         8.0649828866 Hartrees.
 NAtoms=    3 NActive=    3 NUniq=    2 SFac= 1.69D+00 NAtFMM=   80 NAOKFM=F Big=F
 One-electron integrals computed using PRISM.
 NBasis=    24 RedAO= T  NBF=    11     2     4     7
 NBsUse=    24 1.00D-06 NBFU=    11     2     4     7
 Harris functional with IExCor=  205 diagonalized for initial guess.
 ExpMin= 1.22D-01 ExpMax= 1.17D+04 ExpMxC= 4.01D+02 IAcc=1 IRadAn=         1 AccDes= 0.00D+00
 HarFok:  IExCor=  205 AccDes= 0.00D+00 IRadAn=         1 IDoV= 1
 ScaDFX=  1.000000  1.000000  1.000000  1.000000
 FoFCou: FMM=F IPFlag=           0 FMFlag=      100000 FMFlg1=           0
         NFxFlg=           0 DoJE=T BraDBF=F KetDBF=T FulRan=T
         Omega=  0.000000  0.000000  1.000000  0.000000  0.000000 ICntrl=     500 IOpCl=  0
         NMat0=    1 NMatS0=    1 NMatT0=    0 NMatD0=    1 NMtDS0=    0 NMtDT0=    0
         I1Cent=           4 NGrid=           0.
 Petite list used in FoFCou.
 Initial guess orbital symmetries:
       Occupied  (A1) (A1) (B2) (A1) (B1)
       Virtual   (A1) (B2) (B2) (A1) (B1) (A1) (B2) (A2) (A1) (B1)
                 (B2) (A1) (B2) (A1) (B1) (A2) (A1) (A1) (B2)
 The electronic state of the initial guess is 1-A1.
 Requested convergence on RMS density matrix=1.00D-08 within 128 cycles.
 Requested convergence on MAX density matrix=1.00D-06.
 Requested convergence on             energy=1.00D-06.
 No special actions if energy rises.
 Keep R1 ints in memory in canonical form, NReq=893412.
 SCF Done:  E(RHF) =  -75.9920448744     A.U. after   10 cycles
             Convg  =    0.5727D-08             -V/T =  2.0055

 **********************************************************************

            Population analysis using the SCF density.

 **********************************************************************

 Orbital symmetries:
       Occupied  (A1) (A1) (B2) (A1) (B1)
       Virtual   (A1) (B2) (B2) (A1) (A1) (B1) (B2) (A2) (A1) (B1)
                 (B2) (A1) (B2) (A1) (B1) (A2) (A1) (A1) (B2)
 The electronic state is 1-A1.
 Alpha  occ. eigenvalues --  -20.56925  -1.27721  -0.64162  -0.53308  -0.48418
 Alpha virt. eigenvalues --    0.15920   0.23272   0.72521   0.73092   1.16871
 Alpha virt. eigenvalues --    1.19043   1.25934   1.43936   1.51276   1.67927
 Alpha virt. eigenvalues --    1.79152   1.89755   2.17956   2.21447   3.16078
 Alpha virt. eigenvalues --    3.23388   3.31142   3.76695   3.97360
     Molecular Orbital Coefficients:
                           1         2         3         4         5
                        (A1)--O   (A1)--O   (B2)--O   (A1)--O   (B1)--O
     Eigenvalues --   -20.56925  -1.27721  -0.64162  -0.53308  -0.48418
   1 1   H  1S          0.00027   0.14212   0.30436  -0.19916   0.00000
   2        2S          0.00047   0.01399   0.11280  -0.06952   0.00000
   3        3PX         0.00000   0.00000   0.00000   0.00000   0.02555
   4        3PY         0.00018  -0.02785  -0.02563   0.02708   0.00000
   5        3PZ        -0.00022   0.01496   0.02820   0.00556   0.00000
   6 2   O  1S          0.99718  -0.21194   0.00000  -0.06214   0.00000
   7        2S          0.01476   0.45517   0.00000   0.13475   0.00000
   8        3S         -0.00334   0.45871   0.00000   0.29076   0.00000
   9        4PX         0.00000   0.00000   0.00000   0.00000   0.63586
  10        4PY         0.00000   0.00000   0.47177   0.00000   0.00000
  11        4PZ        -0.00143  -0.05270   0.00000   0.53842   0.00000
  12        5PX         0.00000   0.00000   0.00000   0.00000   0.50023
  13        5PY         0.00000   0.00000   0.25189   0.00000   0.00000
  14        5PZ         0.00082  -0.00479   0.00000   0.39049   0.00000
  15        6D 0       -0.00005   0.00072   0.00000  -0.01564   0.00000
  16        6D+1        0.00000   0.00000   0.00000   0.00000  -0.01588
  17        6D-1        0.00000   0.00000  -0.02266   0.00000   0.00000
  18        6D+2        0.00012  -0.00311   0.00000   0.00542   0.00000
  19        6D-2        0.00000   0.00000   0.00000   0.00000   0.00000
  20 3   H  1S          0.00027   0.14212  -0.30436  -0.19916   0.00000
  21        2S          0.00047   0.01399  -0.11280  -0.06952   0.00000
  22        3PX         0.00000   0.00000   0.00000   0.00000   0.02555
  23        3PY        -0.00018   0.02785  -0.02563  -0.02708   0.00000
  24        3PZ        -0.00022   0.01496  -0.02820   0.00556   0.00000
                           6         7         8         9        10
                        (A1)--V   (B2)--V   (B2)--V   (A1)--V   (A1)--V
     Eigenvalues --     0.15920   0.23272   0.72521   0.73092   1.16871
   1 1   H  1S         -0.10144   0.05923   0.93160   0.88182   0.30794
   2        2S         -0.76307   1.18835  -0.83415  -0.63963   0.11443
   3        3PX         0.00000   0.00000   0.00000   0.00000   0.00000
   4        3PY         0.00400  -0.01132   0.04429   0.18725  -0.05288
   5        3PZ        -0.00988   0.00439  -0.12386  -0.01961   0.29863
   6 2   O  1S         -0.08451   0.00000   0.00000   0.03612   0.04155
   7        2S          0.08240   0.00000   0.00000  -0.24012  -0.09978
   8        3S          0.86513   0.00000   0.00000   0.30793  -0.42984
   9        4PX         0.00000   0.00000   0.00000   0.00000   0.00000
  10        4PY         0.00000  -0.32231  -0.30320   0.00000   0.00000
  11        4PZ        -0.23499   0.00000   0.00000   0.28276  -0.80016
  12        5PX         0.00000   0.00000   0.00000   0.00000   0.00000
  13        5PY         0.00000  -0.66490  -0.24788   0.00000   0.00000
  14        5PZ        -0.36958   0.00000   0.00000   0.06979   1.07661
  15        6D 0        0.00663   0.00000   0.00000  -0.01097  -0.02584
  16        6D+1        0.00000   0.00000   0.00000   0.00000   0.00000
  17        6D-1        0.00000   0.01145  -0.09377   0.00000   0.00000
  18        6D+2       -0.00255   0.00000   0.00000  -0.08469  -0.01457
  19        6D-2        0.00000   0.00000   0.00000   0.00000   0.00000
  20 3   H  1S         -0.10144  -0.05923  -0.93160   0.88182   0.30794
  21        2S         -0.76307  -1.18835   0.83415  -0.63963   0.11443
  22        3PX         0.00000   0.00000   0.00000   0.00000   0.00000
  23        3PY        -0.00400  -0.01132   0.04429  -0.18725   0.05288
  24        3PZ        -0.00988  -0.00439   0.12386  -0.01961   0.29863
                          11        12        13        14        15
                        (B1)--V   (B2)--V   (A2)--V   (A1)--V   (B1)--V
     Eigenvalues --     1.19043   1.25934   1.43936   1.51276   1.67927
   1 1   H  1S          0.00000  -0.30843   0.00000   0.23135   0.00000
   2        2S          0.00000  -0.62125   0.00000  -0.20623   0.00000
   3        3PX        -0.11754   0.00000   0.67797   0.00000   0.74244
   4        3PY         0.00000   0.35993   0.00000  -0.31474   0.00000
   5        3PZ         0.00000  -0.06465   0.00000  -0.51215   0.00000
   6 2   O  1S          0.00000   0.00000   0.00000   0.03540   0.00000
   7        2S          0.00000   0.00000   0.00000  -0.69656   0.00000
   8        3S          0.00000   0.00000   0.00000   0.74666   0.00000
   9        4PX         0.94777   0.00000   0.00000   0.00000   0.19027
  10        4PY         0.00000  -0.76045   0.00000   0.00000   0.00000
  11        4PZ         0.00000   0.00000   0.00000  -0.26653   0.00000
  12        5PX        -0.93691   0.00000   0.00000   0.00000  -0.68809
  13        5PY         0.00000   1.59379   0.00000   0.00000   0.00000
  14        5PZ         0.00000   0.00000   0.00000   0.67464   0.00000
  15        6D 0        0.00000   0.00000   0.00000   0.13957   0.00000
  16        6D+1        0.00714   0.00000   0.00000   0.00000  -0.15866
  17        6D-1        0.00000   0.00454   0.00000   0.00000   0.00000
  18        6D+2        0.00000   0.00000   0.00000   0.03765   0.00000
  19        6D-2        0.00000   0.00000   0.14440   0.00000   0.00000
  20 3   H  1S          0.00000   0.30843   0.00000   0.23135   0.00000
  21        2S          0.00000   0.62125   0.00000  -0.20623   0.00000
  22        3PX        -0.11754   0.00000  -0.67797   0.00000   0.74244
  23        3PY         0.00000   0.35993   0.00000   0.31474   0.00000
  24        3PZ         0.00000   0.06465   0.00000  -0.51215   0.00000
                          16        17        18        19        20
                        (B2)--V   (A1)--V   (B2)--V   (A1)--V   (B1)--V
     Eigenvalues --     1.79152   1.89755   2.17956   2.21447   3.16078
   1 1   H  1S         -0.39470  -0.54558  -0.14638  -0.43195   0.00000
   2        2S         -0.11081  -0.29680  -0.34012  -0.25524   0.00000
   3        3PX         0.00000   0.00000   0.00000   0.00000   0.29172
   4        3PY        -0.37221   0.24394   0.63582   0.81459   0.00000
   5        3PZ        -0.66153   0.18127  -0.53802  -0.42224   0.00000
   6 2   O  1S          0.00000   0.01929   0.00000  -0.07627   0.00000
   7        2S          0.00000  -1.65162   0.00000   0.01068   0.00000
   8        3S          0.00000   2.38833   0.00000   1.32737   0.00000
   9        4PX         0.00000   0.00000   0.00000   0.00000   0.04932
  10        4PY        -0.23748   0.00000   0.67612   0.00000   0.00000
  11        4PZ         0.00000   0.20651   0.00000  -0.47676   0.00000
  12        5PX         0.00000   0.00000   0.00000   0.00000  -0.21390
  13        5PY         1.00854   0.00000   0.24491   0.00000   0.00000
  14        5PZ         0.00000  -0.87357   0.00000  -0.39942   0.00000
  15        6D 0        0.00000  -0.12059   0.00000  -0.07780   0.00000
  16        6D+1        0.00000   0.00000   0.00000   0.00000   1.01097
  17        6D-1        0.01883   0.00000   0.11675   0.00000   0.00000
  18        6D+2        0.00000   0.09399   0.00000   0.20046   0.00000
  19        6D-2        0.00000   0.00000   0.00000   0.00000   0.00000
  20 3   H  1S          0.39470  -0.54558   0.14638  -0.43195   0.00000
  21        2S          0.11081  -0.29680   0.34012  -0.25524   0.00000
  22        3PX         0.00000   0.00000   0.00000   0.00000   0.29172
  23        3PY        -0.37221  -0.24394   0.63582  -0.81459   0.00000
  24        3PZ         0.66153   0.18127   0.53802  -0.42224   0.00000
                          21        22        23        24
                        (A2)--V   (A1)--V   (A1)--V   (B2)--V
     Eigenvalues --     3.23388   3.31142   3.76695   3.97360
   1 1   H  1S          0.00000  -0.21469  -0.81148   0.72893
   2        2S          0.00000  -0.03996  -0.18267   0.25261
   3        3PX        -0.29912   0.00000   0.00000   0.00000
   4        3PY         0.00000   0.31020   0.56830  -0.53299
   5        3PZ         0.00000   0.24022  -0.41252   0.40326
   6 2   O  1S          0.00000  -0.01334  -0.06426   0.00000
   7        2S          0.00000  -0.15857  -0.45828   0.00000
   8        3S          0.00000   0.44760   1.79468   0.00000
   9        4PX         0.00000   0.00000   0.00000   0.00000
  10        4PY         0.00000   0.00000   0.00000  -0.21633
  11        4PZ         0.00000   0.03330  -0.19077   0.00000
  12        5PX         0.00000   0.00000   0.00000   0.00000
  13        5PY         0.00000   0.00000   0.00000  -1.00738
  14        5PZ         0.00000  -0.41207  -0.71288   0.00000
  15        6D 0        0.00000   1.02684   0.00379   0.00000
  16        6D+1        0.00000   0.00000   0.00000   0.00000
  17        6D-1        0.00000   0.00000   0.00000   1.24030
  18        6D+2        0.00000   0.04083  -1.13496   0.00000
  19        6D-2        1.02929   0.00000   0.00000   0.00000
  20 3   H  1S          0.00000  -0.21469  -0.81148  -0.72893
  21        2S          0.00000  -0.03996  -0.18267  -0.25261
  22        3PX         0.29912   0.00000   0.00000   0.00000
  23        3PY         0.00000  -0.31020  -0.56830  -0.53299
  24        3PZ         0.00000   0.24022  -0.41252  -0.40326
          Condensed to atoms (all electrons):
              1          2          3
     1  H    0.485662   0.317073  -0.027958
     2  O    0.317073   7.816302   0.317073
     3  H   -0.027958   0.317073   0.485662
 Mulliken atomic charges:
              1
     1  H    0.225224
     2  O   -0.450448
     3  H    0.225224
 Sum of Mulliken atomic charges =   0.00000
 Mulliken charges with hydrogens summed into heavy atoms:
              1
     2  O    0.000000
 Sum of Mulliken charges with hydrogens summed into heavy atoms =   0.00000
 Electronic spatial extent (au):  <R**2>=             20.5339
 Charge=              0.0000 electrons
 Dipole moment (field-independent basis, Debye):
    X=              0.0000    Y=              0.0000    Z=             -2.0773  Tot=              2.0773
 Quadrupole moment (field-independent basis, Debye-Ang):
   XX=             -7.3339   YY=             -3.5576   ZZ=             -6.0743
   XY=              0.0000   XZ=              0.0000   YZ=              0.0000
 Traceless Quadrupole moment (field-independent basis, Debye-Ang):
   XX=             -1.6787   YY=              2.0977   ZZ=             -0.4190
   XY=              0.0000   XZ=              0.0000   YZ=              0.0000
 Octapole moment (field-independent basis, Debye-Ang**2):
  XXX=              0.0000  YYY=              0.0000  ZZZ=             -0.9949  XYY=              0.0000
  XXY=              0.0000  XXZ=             -0.1933  XZZ=              0.0000  YZZ=              0.0000
  YYZ=             -1.7665  XYZ=              0.0000
 Hexadecapole moment (field-independent basis, Debye-Ang**3):
 XXXX=             -5.2392 YYYY=             -6.2654 ZZZZ=             -6.6447 XXXY=              0.0000
 XXXZ=              0.0000 YYYX=              0.0000 YYYZ=              0.0000 ZZZX=              0.0000
 ZZZY=              0.0000 XXYY=             -2.4711 XXZZ=             -2.0520 YYZZ=             -1.6714
 XXYZ=              0.0000 YYXZ=              0.0000 ZZXY=              0.0000
 N-N= 8.064982886565D+00 E-N=-1.966803967395D+02  KE= 7.557703172360D+01
 Symmetry A1   KE= 6.781178294909D+01
 Symmetry A2   KE= 5.716546462367D-35
 Symmetry B1   KE= 4.589627045397D+00
 Symmetry B2   KE= 3.175621729113D+00
 Orbital energies and kinetic energies (alpha):
                                 1                 2
   1         (A1)--O         -20.569249         29.208159
   2         (A1)--O          -1.277206          2.649790
   3         (B2)--O          -0.641624          1.587811
   4         (A1)--O          -0.533082          2.047943
   5         (B1)--O          -0.484185          2.294814
   6         (A1)--V           0.159202          0.913001
   7         (B2)--V           0.232719          0.910236
   8         (B2)--V           0.725210          1.861356
   9         (A1)--V           0.730918          1.947328
  10         (A1)--V           1.168706          3.113310
  11         (B1)--V           1.190426          3.612790
  12         (B2)--V           1.259340          2.875892
  13         (A2)--V           1.439361          1.882097
  14         (A1)--V           1.512759          2.462208
  15         (B1)--V           1.679274          2.116233
  16         (B2)--V           1.791524          2.240926
  17         (A1)--V           1.897549          3.849441
  18         (B2)--V           2.179557          3.654578
  19         (A1)--V           2.214467          3.478239
  20         (B1)--V           3.160780          4.297738
  21         (A2)--V           3.233878          4.385684
  22         (A1)--V           3.311419          4.458122
  23         (A1)--V           3.766950          5.071793
  24         (B2)--V           3.973601          5.350243
 Total kinetic energy from orbitals= 7.557703172360D+01

 Test job not archived.
 1\1\GINC-POOL01\SP\RHF\CC-pVDZ\H2O1\VINCPOHL\28-Sep-2015\0\\#n RHF/cc-
 pVDZ gfinput IOP(6/7=3)\\RHF/cc-pVDZ H2O\\0,1\H,0,0.,-0.8901392951,0.5
 586943229\O,0,0.,0.,-0.0703939342\H,0,0.,0.8901392951,0.5586943229\\Ve
 rsion=AM64L-G09RevA.02\State=1-A1\HF=-75.9920449\RMSD=5.727e-09\Dipole
 =0.,0.,0.8172584\Quadrupole=-1.2480609,1.5595883,-0.3115274,0.,0.,0.\P
 G=C02V [C2(O1),SGV(H2)]\\@


 IN SO FAR AS QUANTUM MECHANICS IS CORRECT, CHEMICAL 
 QUESTIONS ARE PROBLEMS IN APPLIED MATHEMATICS.

                    -- EYRING, WALTER, & KIMBALL, 1944
 Job cpu time:  0 days  0 hours  0 minutes  1.6 seconds.
 File lengths (MBytes):  RWF=      5 Int=      0 D2E=      0 Chk=      1 Scr=      1
 Normal termination of Gaussian 09 at Mon Sep 28 16:55:32 2015.
