RHF/cc-pVDZ H2O                                                         
SP        RHF                                                         CC-pVDZ             
Number of atoms                            I                3
Info1-9                                    I   N=           9
          11          11           0           0           0         111
           1           1           2
Charge                                     I                0
Multiplicity                               I                1
Number of electrons                        I               10
Number of alpha electrons                  I                5
Number of beta electrons                   I                5
Number of basis functions                  I               25
Number of independent functions            I               25
Number of point charges in /Mol/           I                0
Number of translation vectors              I                0
Atomic numbers                             I   N=           3
           1           8           1
Nuclear charges                            R   N=           3
  1.00000000E+00  8.00000000E+00  1.00000000E+00
Current cartesian coordinates              R   N=           9
 -6.16297582E-32  1.68211949E+00 -9.51043615E-01  0.00000000E+00  0.00000000E+00
  2.37760904E-01 -2.06000225E-16 -1.68211949E+00 -9.51043615E-01
Force Field                                I                0
Int Atom Types                             I   N=           3
           0           0           0
MM charges                                 R   N=           3
  0.00000000E+00  0.00000000E+00  0.00000000E+00
Integer atomic weights                     I   N=           3
           1          16           1
Real atomic weights                        R   N=           3
  1.00782504E+00  1.59949146E+01  1.00782504E+00
Atom fragment info                         I   N=           3
           0           0           0
Atom residue num                           I   N=           3
           0           0           0
Nuclear spins                              I   N=           3
           1           0           1
Nuclear ZEff                               R   N=           3
 -1.00000000E+00 -5.60000000E+00 -1.00000000E+00
Nuclear ZNuc                               R   N=           3
  1.00000000E+00  8.00000000E+00  1.00000000E+00
Nuclear QMom                               R   N=           3
  0.00000000E+00  0.00000000E+00  0.00000000E+00
Nuclear GFac                               R   N=           3
  2.79284600E+00  0.00000000E+00  2.79284600E+00
MicOpt                                     I   N=           3
          -1          -1          -1
Number of contracted shells                I               12
Number of primitive shells                 I               30
Pure/Cartesian d shells                    I                1
Pure/Cartesian f shells                    I                1
Highest angular momentum                   I                2
Largest degree of contraction              I                7
Shell types                                I   N=          12
           0           0           1           0           0           0
           1           1           2           0           0           1
Number of primitives per shell             I   N=          12
           3           1           1           7           7           1
           3           1           1           3           1           1
Shell to atom map                          I   N=          12
           1           1           1           2           2           2
           2           2           2           3           3           3
Primitive exponents                        R   N=          30
  1.30100000E+01  1.96200000E+00  4.44600000E-01  1.22000000E-01  7.27000000E-01
  1.17200000E+04  1.75900000E+03  4.00800000E+02  1.13700000E+02  3.70300000E+01
  1.32700000E+01  5.02500000E+00  1.17200000E+04  4.00800000E+02  1.13700000E+02
  3.70300000E+01  1.32700000E+01  5.02500000E+00  1.01300000E+00  3.02300000E-01
  1.77000000E+01  3.85400000E+00  1.04600000E+00  2.75300000E-01  1.18500000E+00
  1.30100000E+01  1.96200000E+00  4.44600000E-01  1.22000000E-01  7.27000000E-01
Contraction coefficients                   R   N=          30
  3.34987264E-02  2.34800801E-01  8.13682958E-01  1.00000000E+00  1.00000000E+00
  7.11864434E-04  5.48520199E-03  2.79099296E-02  1.05133208E-01  2.84002490E-01
  4.51673946E-01  2.73208126E-01  7.69030046E-06  3.13484579E-04 -2.96614853E-03
 -1.08753543E-02 -1.20753817E-01 -1.06275264E-01  1.09597548E+00  1.00000000E+00
  6.26791663E-02  3.33536566E-01  7.41239642E-01  1.00000000E+00  1.00000000E+00
  3.34987264E-02  2.34800801E-01  8.13682958E-01  1.00000000E+00  1.00000000E+00
Coordinates of each shell                  R   N=          36
 -6.22011704E-32  1.68211949E+00 -9.51043615E-01 -6.22011704E-32  1.68211949E+00
 -9.51043615E-01 -6.22011704E-32  1.68211949E+00 -9.51043615E-01  7.32657351E-34
  0.00000000E+00  2.37760904E-01  7.32657351E-34  0.00000000E+00  2.37760904E-01
  7.32657351E-34  0.00000000E+00  2.37760904E-01  7.32657351E-34  0.00000000E+00
  2.37760904E-01  7.32657351E-34  0.00000000E+00  2.37760904E-01  7.32657351E-34
  0.00000000E+00  2.37760904E-01 -2.06000225E-16 -1.68211949E+00 -9.51043615E-01
 -2.06000225E-16 -1.68211949E+00 -9.51043615E-01 -2.06000225E-16 -1.68211949E+00
 -9.51043615E-01
Constraint Structure                       R   N=           9
 -6.22011704E-32  1.68211949E+00 -9.51043615E-01  7.32657351E-34  0.00000000E+00
  2.37760904E-01 -2.06000225E-16 -1.68211949E+00 -9.51043615E-01
Num ILSW                                   I              100
ILSW                                       I   N=         100
           0           1           0           0           2           0
           0           0           0           0           0          -1
           0           0           0           1           0           0
           0           0           1           0           0           0
           1           0           0           0           0           0
           0           0      100000           0          -1           0
           0           0           0           0           0           0
           0           0           0           1           0           0
           0           0           1           0           0           0
           0           0           4          41           0           0
           0           0           0           0           0           0
           0           0           0           0           0           0
           0           0           0           0           0           0
           0           0           0           0           0           0
           0           0           0           0           0           0
           0           0           0           0           0           0
           0           0           0           0
Num RLSW                                   I               41
RLSW                                       R   N=          41
  1.00000000E+00  1.00000000E+00  1.00000000E+00  1.00000000E+00  1.00000000E+00
  0.00000000E+00  0.00000000E+00  1.00000000E+00  0.00000000E+00  0.00000000E+00
  0.00000000E+00  0.00000000E+00  1.00000000E+00  0.00000000E+00  0.00000000E+00
  0.00000000E+00  0.00000000E+00  1.00000000E+00  0.00000000E+00  0.00000000E+00
  0.00000000E+00  0.00000000E+00  1.00000000E+00  0.00000000E+00  0.00000000E+00
  0.00000000E+00  0.00000000E+00  1.00000000E+00  0.00000000E+00  0.00000000E+00
  0.00000000E+00  0.00000000E+00  0.00000000E+00  0.00000000E+00  0.00000000E+00
  0.00000000E+00  0.00000000E+00  0.00000000E+00  1.00000000E+00  1.00000000E+00
  0.00000000E+00
MxBond                                     I                2
NBond                                      I   N=           3
           1           2           1
IBond                                      I   N=           6
           2           0           1           3           2           0
RBond                                      R   N=           6
  1.00000000E+00  0.00000000E+00  1.00000000E+00  1.00000000E+00  1.00000000E+00
  0.00000000E+00
Virial Ratio                               R      2.005988219824656E+00
SCF Energy                                 R     -7.599239992076502E+01
Total Energy                               R     -7.599239992076502E+01
RMS Density                                R      6.995210545077656E-09
External E-field                           R   N=          35
  0.00000000E+00  0.00000000E+00  0.00000000E+00  0.00000000E+00  0.00000000E+00
  0.00000000E+00  0.00000000E+00  0.00000000E+00  0.00000000E+00  0.00000000E+00
  0.00000000E+00  0.00000000E+00  0.00000000E+00  0.00000000E+00  0.00000000E+00
  0.00000000E+00  0.00000000E+00  0.00000000E+00  0.00000000E+00  0.00000000E+00
  0.00000000E+00  0.00000000E+00  0.00000000E+00  0.00000000E+00  0.00000000E+00
  0.00000000E+00  0.00000000E+00  0.00000000E+00  0.00000000E+00  0.00000000E+00
  0.00000000E+00  0.00000000E+00  0.00000000E+00  0.00000000E+00  0.00000000E+00
IOpCl                                      I                0
IROHF                                      I                0
Alpha Orbital Energies                     R   N=          25
 -2.05704730E+01 -1.27755361E+00 -6.41980010E-01 -5.33424332E-01 -4.84624203E-01
  1.56917735E-01  2.32512210E-01  7.25041552E-01  7.30576317E-01  1.16600507E+00
  1.19006702E+00  1.25902724E+00  1.43917316E+00  1.46990406E+00  1.67901903E+00
  1.76908707E+00  1.79129723E+00  2.17934223E+00  2.21405381E+00  3.16038814E+00
  3.23351072E+00  3.31071145E+00  3.76099846E+00  3.97330810E+00  5.85822588E+00
Alpha MO coefficients                      R   N=         625
  2.04305598E-04  2.46135333E-04  0.00000000E+00  1.37855709E-04 -1.62655333E-04
  9.96850483E-01  1.57634250E-02 -1.53247119E-03  0.00000000E+00  0.00000000E+00
 -1.37835131E-03  0.00000000E+00  0.00000000E+00  6.47844503E-04 -1.00840042E-03
 -1.21667729E-03 -1.17210344E-03  0.00000000E+00  0.00000000E+00  0.00000000E+00
  2.04305598E-04  2.46135333E-04  0.00000000E+00 -1.37855709E-04 -1.62655333E-04
  1.42397943E-01  1.46532948E-02  0.00000000E+00 -2.78101774E-02  1.48691403E-02
 -2.11313374E-01  4.53975739E-01  4.54097686E-01  0.00000000E+00  0.00000000E+00
 -5.27581088E-02  0.00000000E+00  0.00000000E+00 -4.21310257E-03 -8.45283722E-04
  4.54341015E-03  2.90894331E-03  0.00000000E+00  0.00000000E+00  0.00000000E+00
  1.42397943E-01  1.46532948E-02  0.00000000E+00  2.78101774E-02  1.48691403E-02
  3.04303897E-01  1.12748745E-01  0.00000000E+00 -2.56380346E-02  2.81883733E-02
  0.00000000E+00  0.00000000E+00  0.00000000E+00  0.00000000E+00  4.71922305E-01
  0.00000000E+00  0.00000000E+00  2.51861129E-01  0.00000000E+00  0.00000000E+00
  0.00000000E+00  0.00000000E+00  0.00000000E+00  0.00000000E+00 -2.26548036E-02
 -3.04303897E-01 -1.12748745E-01  0.00000000E+00 -2.56380346E-02 -2.81883733E-02
 -2.00350218E-01 -7.24627934E-02  0.00000000E+00  2.69141856E-02  5.82887778E-03
 -6.43692426E-02  1.38170693E-01  3.08602597E-01  0.00000000E+00  0.00000000E+00
  5.38564624E-01  0.00000000E+00  0.00000000E+00  3.88326041E-01  4.78556343E-03
 -4.73303968E-03 -2.33643594E-02  0.00000000E+00  0.00000000E+00  0.00000000E+00
 -2.00350218E-01 -7.24627934E-02  0.00000000E+00 -2.69141856E-02  5.82887778E-03
  0.00000000E+00  0.00000000E+00  2.55284065E-02  0.00000000E+00  0.00000000E+00
  0.00000000E+00  0.00000000E+00  0.00000000E+00  6.35974776E-01  0.00000000E+00
  0.00000000E+00  5.00133827E-01  0.00000000E+00  0.00000000E+00  0.00000000E+00
  0.00000000E+00  0.00000000E+00  0.00000000E+00 -1.58493851E-02  0.00000000E+00
  0.00000000E+00  0.00000000E+00  2.55284065E-02  0.00000000E+00  0.00000000E+00
 -1.05110793E-01 -7.72657677E-01  0.00000000E+00  3.41732458E-03 -8.92162777E-03
 -9.25887041E-02  9.07388111E-02  9.35563525E-01  0.00000000E+00  0.00000000E+00
 -2.34368745E-01  0.00000000E+00  0.00000000E+00 -3.76780512E-01 -3.50960823E-02
 -3.11137813E-02 -2.30536933E-02  0.00000000E+00  0.00000000E+00  0.00000000E+00
 -1.05110793E-01 -7.72657677E-01  0.00000000E+00 -3.41732458E-03 -8.92162777E-03
  5.95330919E-02  1.18809727E+00  0.00000000E+00 -1.13139771E-02  4.35446307E-03
  0.00000000E+00  0.00000000E+00  0.00000000E+00  0.00000000E+00 -3.22384515E-01
  0.00000000E+00  0.00000000E+00 -6.64868783E-01  0.00000000E+00  0.00000000E+00
  0.00000000E+00  0.00000000E+00  0.00000000E+00  0.00000000E+00  1.14082949E-02
 -5.95330919E-02 -1.18809727E+00  0.00000000E+00 -1.13139771E-02 -4.35446307E-03
  9.31627130E-01 -8.34418790E-01  0.00000000E+00  4.42347459E-02 -1.23836764E-01
  0.00000000E+00  0.00000000E+00  0.00000000E+00  0.00000000E+00 -3.03013885E-01
  0.00000000E+00  0.00000000E+00 -2.47828863E-01  0.00000000E+00  0.00000000E+00
  0.00000000E+00  0.00000000E+00  0.00000000E+00  0.00000000E+00 -9.37956440E-02
 -9.31627130E-01  8.34418790E-01  0.00000000E+00  4.42347459E-02  1.23836764E-01
  8.79894109E-01 -6.42595498E-01  0.00000000E+00  1.86791565E-01 -1.94206616E-02
  3.33065519E-02 -2.40562677E-01  3.37293316E-01  0.00000000E+00  0.00000000E+00
  2.82500120E-01  0.00000000E+00  0.00000000E+00  6.83092357E-02 -7.87513690E-02
  6.75132192E-02 -2.20281136E-02  0.00000000E+00  0.00000000E+00  0.00000000E+00
  8.79894109E-01 -6.42595498E-01  0.00000000E+00 -1.86791565E-01 -1.94206616E-02
  2.95021414E-01  9.66462106E-02  0.00000000E+00 -5.68110512E-02  2.91342591E-01
  3.19518774E-02 -1.28534683E-01 -2.86173708E-01  0.00000000E+00  0.00000000E+00
 -7.98575904E-01  0.00000000E+00  0.00000000E+00  1.06436517E+00 -3.70026863E-02
 -1.60158450E-02 -6.32833792E-02  0.00000000E+00  0.00000000E+00  0.00000000E+00
  2.95021414E-01  9.66462106E-02  0.00000000E+00  5.68110512E-02  2.91342591E-01
  0.00000000E+00  0.00000000E+00 -1.17399977E-01  0.00000000E+00  0.00000000E+00
  0.00000000E+00  0.00000000E+00  0.00000000E+00  9.47729712E-01  0.00000000E+00
  0.00000000E+00 -9.37103513E-01  0.00000000E+00  0.00000000E+00  0.00000000E+00
  0.00000000E+00  0.00000000E+00  0.00000000E+00  7.09253022E-03  0.00000000E+00
  0.00000000E+00  0.00000000E+00 -1.17399977E-01  0.00000000E+00  0.00000000E+00
 -3.08317551E-01 -6.21348140E-01  0.00000000E+00  3.59824415E-01 -6.46919513E-02
  0.00000000E+00  0.00000000E+00  0.00000000E+00  0.00000000E+00 -7.60512396E-01
  0.00000000E+00  0.00000000E+00  1.59389462E+00  0.00000000E+00  0.00000000E+00
  0.00000000E+00  0.00000000E+00  0.00000000E+00  0.00000000E+00  4.55196593E-03
  3.08317551E-01  6.21348140E-01  0.00000000E+00  3.59824415E-01  6.46919513E-02
  0.00000000E+00  0.00000000E+00  6.77964926E-01  0.00000000E+00  0.00000000E+00
  0.00000000E+00  0.00000000E+00  0.00000000E+00  0.00000000E+00  0.00000000E+00
  0.00000000E+00  0.00000000E+00  0.00000000E+00  0.00000000E+00  0.00000000E+00
  0.00000000E+00  0.00000000E+00  1.44431605E-01  0.00000000E+00  0.00000000E+00
  0.00000000E+00  0.00000000E+00 -6.77964926E-01  0.00000000E+00  0.00000000E+00
  8.65732868E-02 -2.87427054E-01  0.00000000E+00 -2.62620674E-01 -4.60527132E-01
 -1.22788346E-02 -8.57487146E-01  1.49196209E+00  0.00000000E+00  0.00000000E+00
 -1.76132924E-01  0.00000000E+00  0.00000000E+00  4.10779023E-01 -1.86887118E-01
 -2.73541881E-01 -5.72773993E-02  0.00000000E+00  0.00000000E+00  0.00000000E+00
  8.65732868E-02 -2.87427054E-01  0.00000000E+00  2.62620674E-01 -4.60527132E-01
  0.00000000E+00  0.00000000E+00  7.42451424E-01  0.00000000E+00  0.00000000E+00
  0.00000000E+00  0.00000000E+00  0.00000000E+00  1.90092767E-01  0.00000000E+00
  0.00000000E+00 -6.87883355E-01  0.00000000E+00  0.00000000E+00  0.00000000E+00
  0.00000000E+00  0.00000000E+00  0.00000000E+00 -1.58711839E-01  0.00000000E+00
  0.00000000E+00  0.00000000E+00  7.42451424E-01  0.00000000E+00  0.00000000E+00
 -6.00913508E-01 -2.74082400E-01  0.00000000E+00  2.90069970E-01  2.97465489E-01
 -5.89232952E-02 -1.21002075E+00  2.49593448E+00  0.00000000E+00  0.00000000E+00
  2.96816440E-01  0.00000000E+00  0.00000000E+00 -1.05228062E+00 -1.09851372E-01
 -2.31993387E-01 -3.81497460E-01  0.00000000E+00  0.00000000E+00  0.00000000E+00
 -6.00913508E-01 -2.74082400E-01  0.00000000E+00 -2.90069970E-01  2.97465489E-01
 -3.94648680E-01 -1.10746877E-01  0.00000000E+00 -3.72262477E-01 -6.61518558E-01
  0.00000000E+00  0.00000000E+00  0.00000000E+00  0.00000000E+00 -2.37386863E-01
  0.00000000E+00  0.00000000E+00  1.00833106E+00  0.00000000E+00  0.00000000E+00
  0.00000000E+00  0.00000000E+00  0.00000000E+00  0.00000000E+00  1.88533375E-02
  3.94648680E-01  1.10746877E-01  0.00000000E+00 -3.72262477E-01  6.61518558E-01
 -1.46341803E-01 -3.40166615E-01  0.00000000E+00  6.35827109E-01 -5.38006653E-01
  0.00000000E+00  0.00000000E+00  0.00000000E+00  0.00000000E+00  6.76017719E-01
  0.00000000E+00  0.00000000E+00  2.44935241E-01  0.00000000E+00  0.00000000E+00
  0.00000000E+00  0.00000000E+00  0.00000000E+00  0.00000000E+00  1.16812423E-01
  1.46341803E-01  3.40166615E-01  0.00000000E+00  6.35827109E-01  5.38006653E-01
 -4.38646234E-01 -2.58989698E-01  0.00000000E+00  8.17389316E-01 -4.21178868E-01
 -7.28072468E-02 -2.78529944E-02  1.35172795E+00  0.00000000E+00  0.00000000E+00
 -4.75233387E-01  0.00000000E+00  0.00000000E+00 -4.08677994E-01  2.25623707E-01
 -1.25395921E-01 -6.92971211E-02  0.00000000E+00  0.00000000E+00  0.00000000E+00
 -4.38646234E-01 -2.58989698E-01  0.00000000E+00 -8.17389316E-01 -4.21178868E-01
  0.00000000E+00  0.00000000E+00  2.91750327E-01  0.00000000E+00  0.00000000E+00
  0.00000000E+00  0.00000000E+00  0.00000000E+00  4.93375834E-02  0.00000000E+00
  0.00000000E+00 -2.13966830E-01  0.00000000E+00  0.00000000E+00  0.00000000E+00
  0.00000000E+00  0.00000000E+00  0.00000000E+00  1.01095946E+00  0.00000000E+00
  0.00000000E+00  0.00000000E+00  2.91750327E-01  0.00000000E+00  0.00000000E+00
  0.00000000E+00  0.00000000E+00 -2.99138481E-01  0.00000000E+00  0.00000000E+00
  0.00000000E+00  0.00000000E+00  0.00000000E+00  0.00000000E+00  0.00000000E+00
  0.00000000E+00  0.00000000E+00  0.00000000E+00  0.00000000E+00  0.00000000E+00
  0.00000000E+00  0.00000000E+00  1.02928842E+00  0.00000000E+00  0.00000000E+00
  0.00000000E+00  0.00000000E+00  2.99138481E-01  0.00000000E+00  0.00000000E+00
 -2.15428801E-01 -4.11394921E-02  0.00000000E+00  3.10635381E-01  2.39686053E-01
 -1.83722693E-02 -1.33920091E-01  4.62209117E-01  0.00000000E+00  0.00000000E+00
  3.32970806E-02  0.00000000E+00  0.00000000E+00 -4.13366301E-01 -4.97412539E-01
 -5.62040852E-01  1.01114599E+00  0.00000000E+00  0.00000000E+00  0.00000000E+00
 -2.15428801E-01 -4.11394921E-02  0.00000000E+00 -3.10635381E-01  2.39686053E-01
 -8.05553067E-01 -1.87661840E-01  0.00000000E+00  5.61900575E-01 -4.09566221E-01
 -8.58967966E-02 -3.51568233E-01  1.85035188E+00  0.00000000E+00  0.00000000E+00
 -1.87523173E-01  0.00000000E+00  0.00000000E+00 -7.11070061E-01 -1.05684792E+00
  9.08913193E-01 -7.08053833E-02  0.00000000E+00  0.00000000E+00  0.00000000E+00
 -8.05553067E-01 -1.87661840E-01  0.00000000E+00 -5.61900575E-01 -4.09566221E-01
  7.28970184E-01  2.52645358E-01  0.00000000E+00 -5.33022388E-01  4.03301094E-01
  0.00000000E+00  0.00000000E+00  0.00000000E+00  0.00000000E+00 -2.16343274E-01
  0.00000000E+00  0.00000000E+00 -1.00746565E+00  0.00000000E+00  0.00000000E+00
  0.00000000E+00  0.00000000E+00  0.00000000E+00  0.00000000E+00  1.24029087E+00
 -7.28970184E-01 -2.52645358E-01  0.00000000E+00 -5.33022388E-01 -4.03301094E-01
  4.12678576E-02 -1.78591852E-01  0.00000000E+00 -1.07310836E-01  9.20645538E-02
 -4.18235875E-01  1.70874047E+00  1.61826057E+00  0.00000000E+00  0.00000000E+00
  8.87029902E-02  0.00000000E+00  0.00000000E+00 -8.23391559E-02 -1.40062087E+00
 -1.48526377E+00 -1.42971491E+00  0.00000000E+00  0.00000000E+00  0.00000000E+00
  4.12678576E-02 -1.78591852E-01  0.00000000E+00  1.07310836E-01  9.20645538E-02
Total SCF Density                          R   N=         325
  3.06036575E-01  1.01828937E-01  3.63558313E-02  1.92592994E-34  9.62964972E-35
  1.30339907E-03 -3.43082013E-02 -1.04968202E-02 -3.61111865E-35  4.31021435E-03
  1.90546333E-02  5.94733763E-03  1.20370622E-35 -1.95870169E-03  2.09935599E-03
 -3.39810719E-02  3.62659619E-03 -4.81482486E-35  8.56327641E-03 -7.35878339E-03
  2.08501526E+00  7.39318075E-02 -6.71222820E-03  9.62964972E-35 -1.78084422E-02
  1.51060900E-02 -1.78222620E-01  4.50867195E-01  5.66733219E-03 -3.14171123E-02
  4.81482486E-35 -8.64592185E-03  1.71021966E-02 -2.34698148E-01  4.97530020E-01
  6.02885239E-01 -1.54074396E-33 -7.70371978E-34  3.24708451E-02  0.00000000E+00
 -1.92592994E-34  0.00000000E+00  0.00000000E+00  0.00000000E+00  8.08927830E-01
  2.87215593E-01  1.06417296E-01  0.00000000E+00 -2.41983207E-02  2.66054442E-02
  0.00000000E+00  0.00000000E+00  0.00000000E+00 -9.24446373E-33  4.45421324E-01
 -2.30828935E-01 -7.95986330E-02 -1.92592994E-34  3.19241012E-02  4.70996769E-03
 -4.97850264E-02  1.00882437E-01  2.84494437E-01  0.00000000E+00  0.00000000E+00
  5.85674345E-01 -7.70371978E-34 -3.85185989E-34  2.55352392E-02  0.00000000E+00
  0.00000000E+00  0.00000000E+00  0.00000000E+00  0.00000000E+00  6.36144996E-01
 -7.70371978E-33  0.00000000E+00  5.00267689E-01  1.53284646E-01  5.67940525E-02
  0.00000000E+00 -1.29144487E-02  1.41991110E-02  0.00000000E+00  0.00000000E+00
  0.00000000E+00 -7.70371978E-33  2.37717769E-01  0.00000000E+00 -4.62223187E-33
  1.26868056E-01 -1.56802023E-01 -5.64015321E-02 -9.62964972E-35  2.11374711E-02
  4.40150888E-03 -4.69203282E-02  1.03505688E-01  2.35848543E-01  0.00000000E+00
  0.00000000E+00  4.18720101E-01  0.00000000E+00  0.00000000E+00  3.01630568E-01
 -2.15872272E-03 -7.18819378E-04 -9.02779661E-36  3.04336038E-04  3.09796876E-05
 -2.26929557E-03  5.23180936E-04  2.18908253E-03  0.00000000E+00  0.00000000E+00
  5.24664135E-03  0.00000000E+00  0.00000000E+00  3.72253376E-03  4.92659867E-05
  3.18997844E-03  8.18491476E-04  1.50463277E-35 -5.07813353E-04  8.03323841E-05
 -3.73653298E-03  2.77890321E-03  1.20877644E-03  0.00000000E+00  0.00000000E+00
 -5.57414492E-03  0.00000000E+00  0.00000000E+00 -3.71578526E-03 -5.05276688E-05
  8.90490881E-05  1.01900852E-02  3.47076772E-03  3.61111865E-35 -1.41978503E-03
 -1.85487721E-04 -5.58328770E-04 -3.85231281E-03 -1.17751227E-02  0.00000000E+00
  0.00000000E+00 -2.54701445E-02  0.00000000E+00  0.00000000E+00 -1.81720084E-02
 -2.26177114E-04  2.50454069E-04  1.11145814E-03 -8.33952129E-35 -1.38992021E-35
 -7.03229367E-36  3.47480054E-36 -6.51525101E-37  1.25092819E-34 -8.33952129E-35
 -4.86472075E-35 -4.71519336E-51  9.43038672E-51  0.00000000E+00 -3.24127209E-51
  6.48254418E-51  0.00000000E+00  8.68700134E-37 -1.73740027E-36 -3.47480054E-36
  2.39332078E-36  3.33580852E-34  1.38992021E-34 -8.09219087E-04 -6.94960107E-36
  6.94960107E-36 -8.07459784E-36  1.86158018E-36  7.78918414E-36 -2.01596182E-02
  2.36286437E-34 -6.21216198E-35 -1.58536272E-02  1.66790426E-34 -4.88527605E-35
  1.75298024E-37 -1.79787336E-37  1.87670597E-36  4.45460785E-52  5.02406013E-04
 -1.37878900E-02 -5.10860137E-03 -3.47480054E-35  1.16164928E-03 -1.27720412E-03
 -5.31812631E-35  3.95515264E-35  1.72042528E-35  6.25464097E-34 -2.13826143E-02
 -2.63561070E-34  3.89177660E-34 -1.14117288E-02 -1.40660418E-34 -7.19149345E-37
  1.26741635E-36  2.54791645E-35 -8.90921570E-52 -3.00926554E-35  1.02648025E-03
 -6.43668712E-02 -3.54105935E-02  1.20370622E-35 -3.10118607E-03 -1.52566940E-02
 -3.39810719E-02  7.39318075E-02  5.66733219E-03  1.54074396E-33 -2.87215593E-01
 -2.30828935E-01  7.70371978E-34 -1.53284646E-01 -1.56802023E-01 -2.15872272E-03
  3.18997844E-03  1.01900852E-02 -5.55968086E-35 -2.77984043E-34  1.37878900E-02
  3.06036575E-01 -3.54105935E-02 -1.44932870E-02 -6.01853108E-36  1.06580473E-03
 -6.76547725E-03  3.62659619E-03 -6.71222820E-03 -3.14171123E-02  7.70371978E-34
 -1.06417296E-01 -7.95986330E-02  3.85185989E-34 -5.67940525E-02 -5.64015321E-02
 -7.18819378E-04  8.18491476E-04  3.47076772E-03 -2.08488032E-35 -1.66790426E-34
  5.10860137E-03  1.01828937E-01  3.63558313E-02 -1.20370622E-35  6.01853108E-36
  1.30339907E-03  0.00000000E+00  6.01853108E-36  4.81482486E-35 -9.62964972E-35
 -4.81482486E-35  3.24708451E-02  0.00000000E+00  1.92592994E-34  2.55352392E-02
  0.00000000E+00  9.62964972E-35  9.02779661E-36 -1.50463277E-35 -3.61111865E-35
  7.03229367E-36 -8.09219087E-04 -2.77984043E-35 -1.92592994E-34 -9.62964972E-35
  1.30339907E-03  3.10118607E-03 -1.06580473E-03  0.00000000E+00 -1.68097908E-03
 -9.32076270E-04 -8.56327641E-03  1.78084422E-02  8.64592185E-03  0.00000000E+00
 -2.41983207E-02 -3.19241012E-02  0.00000000E+00 -1.29144487E-02 -2.11374711E-02
 -3.04336038E-04  5.07813353E-04  1.41978503E-03 -3.47480054E-36 -6.94960107E-36
  1.16164928E-03  3.43082013E-02  1.04968202E-02 -3.61111865E-35  4.31021435E-03
 -1.52566940E-02 -6.76547725E-03 -6.01853108E-36  9.32076270E-04 -1.07898157E-03
 -7.35878339E-03  1.51060900E-02  1.71021966E-02  1.92592994E-34 -2.66054442E-02
  4.70996769E-03  0.00000000E+00 -1.41991110E-02  4.40150888E-03  3.09796876E-05
  8.03323841E-05 -1.85487721E-04 -6.51525101E-37 -6.94960107E-36  1.27720412E-03
  1.90546333E-02  5.94733763E-03 -1.20370622E-35  1.95870169E-03  2.09935599E-03
Mulliken Charges                           R   N=           3
  2.22368245E-01 -4.44736491E-01  2.22368245E-01
ONIOM Charges                              I   N=          16
           0           0           0           0           0           0
           0           0           0           0           0           0
           0           0           0           0
ONIOM Multiplicities                       I   N=          16
           1           0           0           0           0           0
           0           0           0           0           0           0
           0           0           0           0
Atom Layers                                I   N=           3
           1           1           1
Atom Modifiers                             I   N=           3
           0           0           0
Force Field                                I                0
Int Atom Modified Types                    I   N=           3
           0           0           0
Link Atoms                                 I   N=           3
           0           0           0
Atom Modified MM Charges                   R   N=           3
  0.00000000E+00  0.00000000E+00  0.00000000E+00
Link Distances                             R   N=          12
  0.00000000E+00  0.00000000E+00  0.00000000E+00  0.00000000E+00  0.00000000E+00
  0.00000000E+00  0.00000000E+00  0.00000000E+00  0.00000000E+00  0.00000000E+00
  0.00000000E+00  0.00000000E+00
Cartesian Gradient                         R   N=           9
  0.00000000E+00  0.00000000E+00  0.00000000E+00  0.00000000E+00  0.00000000E+00
  0.00000000E+00  0.00000000E+00  0.00000000E+00  0.00000000E+00
Dipole Moment                              R   N=           3
 -4.58602321E-17 -3.46944695E-18 -8.17393478E-01
Quadrupole Moment                          R   N=           6
 -1.24216841E+00  1.55484884E+00 -3.12680423E-01  1.07847240E-16  6.18321988E-17
  0.00000000E+00
QEq coupling tensors                       R   N=          18
  1.23242088E-01  3.26049734E-17 -1.08031587E-01 -1.69994927E-17  1.34117549E-01
 -1.52105005E-02  2.28888686E+00  6.29519278E-16 -1.98921171E+00  3.44212590E-17
 -3.10362833E-16 -2.99675143E-01  1.23242088E-01  1.16231069E-16 -1.08031587E-01
  7.91782893E-17 -1.34117549E-01 -1.52105005E-02
