RHF/cc-pVDZ H2O                                                         
SP        RHF                                                         CC-pVDZ             
Number of atoms                            I                3
Info1-9                                    I   N=           9
          11          11           0           0           0         111
           1           1           2
Charge                                     I                0
Multiplicity                               I                1
Number of electrons                        I               10
Number of alpha electrons                  I                5
Number of beta electrons                   I                5
Number of basis functions                  I               24
Number of independent functions            I               24
Number of point charges in /Mol/           I                0
Number of translation vectors              I                0
Atomic numbers                             I   N=           3
           1           8           1
Nuclear charges                            R   N=           3
  1.00000000E+00  8.00000000E+00  1.00000000E+00
Current cartesian coordinates              R   N=           9
 -6.16297582E-32  1.68211949E+00 -9.51043615E-01  0.00000000E+00  0.00000000E+00
  2.37760904E-01 -2.06000225E-16 -1.68211949E+00 -9.51043615E-01
Force Field                                I                0
Int Atom Types                             I   N=           3
           0           0           0
MM charges                                 R   N=           3
  0.00000000E+00  0.00000000E+00  0.00000000E+00
Integer atomic weights                     I   N=           3
           1          16           1
Real atomic weights                        R   N=           3
  1.00782504E+00  1.59949146E+01  1.00782504E+00
Atom fragment info                         I   N=           3
           0           0           0
Atom residue num                           I   N=           3
           0           0           0
Nuclear spins                              I   N=           3
           1           0           1
Nuclear ZEff                               R   N=           3
 -1.00000000E+00 -5.60000000E+00 -1.00000000E+00
Nuclear ZNuc                               R   N=           3
  1.00000000E+00  8.00000000E+00  1.00000000E+00
Nuclear QMom                               R   N=           3
  0.00000000E+00  0.00000000E+00  0.00000000E+00
Nuclear GFac                               R   N=           3
  2.79284600E+00  0.00000000E+00  2.79284600E+00
MicOpt                                     I   N=           3
          -1          -1          -1
Number of contracted shells                I               12
Number of primitive shells                 I               30
Pure/Cartesian d shells                    I                0
Pure/Cartesian f shells                    I                0
Highest angular momentum                   I                2
Largest degree of contraction              I                7
Shell types                                I   N=          12
           0           0           1           0           0           0
           1           1          -2           0           0           1
Number of primitives per shell             I   N=          12
           3           1           1           7           7           1
           3           1           1           3           1           1
Shell to atom map                          I   N=          12
           1           1           1           2           2           2
           2           2           2           3           3           3
Primitive exponents                        R   N=          30
  1.30100000E+01  1.96200000E+00  4.44600000E-01  1.22000000E-01  7.27000000E-01
  1.17200000E+04  1.75900000E+03  4.00800000E+02  1.13700000E+02  3.70300000E+01
  1.32700000E+01  5.02500000E+00  1.17200000E+04  4.00800000E+02  1.13700000E+02
  3.70300000E+01  1.32700000E+01  5.02500000E+00  1.01300000E+00  3.02300000E-01
  1.77000000E+01  3.85400000E+00  1.04600000E+00  2.75300000E-01  1.18500000E+00
  1.30100000E+01  1.96200000E+00  4.44600000E-01  1.22000000E-01  7.27000000E-01
Contraction coefficients                   R   N=          30
  3.34987264E-02  2.34800801E-01  8.13682958E-01  1.00000000E+00  1.00000000E+00
  7.11864434E-04  5.48520199E-03  2.79099296E-02  1.05133208E-01  2.84002490E-01
  4.51673946E-01  2.73208126E-01  7.69030046E-06  3.13484579E-04 -2.96614853E-03
 -1.08753543E-02 -1.20753817E-01 -1.06275264E-01  1.09597548E+00  1.00000000E+00
  6.26791663E-02  3.33536566E-01  7.41239642E-01  1.00000000E+00  1.00000000E+00
  3.34987264E-02  2.34800801E-01  8.13682958E-01  1.00000000E+00  1.00000000E+00
Coordinates of each shell                  R   N=          36
 -6.22011704E-32  1.68211949E+00 -9.51043615E-01 -6.22011704E-32  1.68211949E+00
 -9.51043615E-01 -6.22011704E-32  1.68211949E+00 -9.51043615E-01  7.32657351E-34
  0.00000000E+00  2.37760904E-01  7.32657351E-34  0.00000000E+00  2.37760904E-01
  7.32657351E-34  0.00000000E+00  2.37760904E-01  7.32657351E-34  0.00000000E+00
  2.37760904E-01  7.32657351E-34  0.00000000E+00  2.37760904E-01  7.32657351E-34
  0.00000000E+00  2.37760904E-01 -2.06000225E-16 -1.68211949E+00 -9.51043615E-01
 -2.06000225E-16 -1.68211949E+00 -9.51043615E-01 -2.06000225E-16 -1.68211949E+00
 -9.51043615E-01
Constraint Structure                       R   N=           9
 -6.22011704E-32  1.68211949E+00 -9.51043615E-01  7.32657351E-34  0.00000000E+00
  2.37760904E-01 -2.06000225E-16 -1.68211949E+00 -9.51043615E-01
Num ILSW                                   I              100
ILSW                                       I   N=         100
           0           0           0           0           2           0
           0           0           0           0           0          -1
           0           0           0           0           0           0
           0           0           1           0           0           0
           1           0           0           0           0           0
           0           0      100000           0          -1           0
           0           0           0           0           0           0
           0           0           0           1           0           0
           0           0           1           0           0           0
           0           0           4          41           0           0
           0           0           0           0           0           0
           0           0           0           0           0           0
           0           0           0           0           0           0
           0           0           0           0           0           0
           0           0           0           0           0           0
           0           0           0           0           0           0
           0           0           0           0
Num RLSW                                   I               41
RLSW                                       R   N=          41
  1.00000000E+00  1.00000000E+00  1.00000000E+00  1.00000000E+00  1.00000000E+00
  0.00000000E+00  0.00000000E+00  1.00000000E+00  0.00000000E+00  0.00000000E+00
  0.00000000E+00  0.00000000E+00  1.00000000E+00  0.00000000E+00  0.00000000E+00
  0.00000000E+00  0.00000000E+00  1.00000000E+00  0.00000000E+00  0.00000000E+00
  0.00000000E+00  0.00000000E+00  1.00000000E+00  0.00000000E+00  0.00000000E+00
  0.00000000E+00  0.00000000E+00  1.00000000E+00  0.00000000E+00  0.00000000E+00
  0.00000000E+00  0.00000000E+00  0.00000000E+00  0.00000000E+00  0.00000000E+00
  0.00000000E+00  0.00000000E+00  0.00000000E+00  1.00000000E+00  1.00000000E+00
  0.00000000E+00
MxBond                                     I                2
NBond                                      I   N=           3
           1           2           1
IBond                                      I   N=           6
           2           0           1           3           2           0
RBond                                      R   N=           6
  1.00000000E+00  0.00000000E+00  1.00000000E+00  1.00000000E+00  1.00000000E+00
  0.00000000E+00
Virial Ratio                               R      2.005491260258638E+00
SCF Energy                                 R     -7.599204487437217E+01
Total Energy                               R     -7.599204487437217E+01
RMS Density                                R      5.726865483449127E-09
External E-field                           R   N=          35
  0.00000000E+00  0.00000000E+00  0.00000000E+00  0.00000000E+00  0.00000000E+00
  0.00000000E+00  0.00000000E+00  0.00000000E+00  0.00000000E+00  0.00000000E+00
  0.00000000E+00  0.00000000E+00  0.00000000E+00  0.00000000E+00  0.00000000E+00
  0.00000000E+00  0.00000000E+00  0.00000000E+00  0.00000000E+00  0.00000000E+00
  0.00000000E+00  0.00000000E+00  0.00000000E+00  0.00000000E+00  0.00000000E+00
  0.00000000E+00  0.00000000E+00  0.00000000E+00  0.00000000E+00  0.00000000E+00
  0.00000000E+00  0.00000000E+00  0.00000000E+00  0.00000000E+00  0.00000000E+00
IOpCl                                      I                0
IROHF                                      I                0
Alpha Orbital Energies                     R   N=          24
 -2.05692485E+01 -1.27720636E+00 -6.41623838E-01 -5.33081932E-01 -4.84184592E-01
  1.59201513E-01  2.32719032E-01  7.25210124E-01  7.30918193E-01  1.16870582E+00
  1.19042612E+00  1.25933997E+00  1.43936140E+00  1.51275892E+00  1.67927370E+00
  1.79152421E+00  1.89754885E+00  2.17955678E+00  2.21446695E+00  3.16077979E+00
  3.23387818E+00  3.31141906E+00  3.76695039E+00  3.97360095E+00
Alpha MO coefficients                      R   N=         576
  2.74486432E-04  4.71759915E-04  0.00000000E+00  1.80732904E-04 -2.19161380E-04
  9.97177191E-01  1.47625393E-02 -3.34010274E-03  0.00000000E+00  0.00000000E+00
 -1.43219222E-03  0.00000000E+00  0.00000000E+00  8.23242326E-04 -4.68058258E-05
  0.00000000E+00  0.00000000E+00  1.16865857E-04  0.00000000E+00  2.74486432E-04
  4.71759915E-04  0.00000000E+00 -1.80732904E-04 -2.19161380E-04  1.42122943E-01
  1.39859484E-02  0.00000000E+00 -2.78546710E-02  1.49583034E-02 -2.11936333E-01
  4.55167991E-01  4.58709750E-01  0.00000000E+00  0.00000000E+00 -5.26963040E-02
  0.00000000E+00  0.00000000E+00 -4.78512229E-03  7.22465189E-04  0.00000000E+00
  0.00000000E+00 -3.10797363E-03  0.00000000E+00  1.42122943E-01  1.39859484E-02
  0.00000000E+00  2.78546710E-02  1.49583034E-02  3.04359064E-01  1.12797243E-01
  0.00000000E+00 -2.56273934E-02  2.82026341E-02  0.00000000E+00  0.00000000E+00
  0.00000000E+00  0.00000000E+00  4.71765408E-01  0.00000000E+00  0.00000000E+00
  2.51885722E-01  0.00000000E+00  0.00000000E+00  0.00000000E+00 -2.26630400E-02
  0.00000000E+00  0.00000000E+00 -3.04359064E-01 -1.12797243E-01  0.00000000E+00
 -2.56273934E-02 -2.82026341E-02 -1.99158802E-01 -6.95221443E-02  0.00000000E+00
  2.70820800E-02  5.56449605E-03 -6.21449809E-02  1.34750667E-01  2.90764614E-01
  0.00000000E+00  0.00000000E+00  5.38424150E-01  0.00000000E+00  0.00000000E+00
  3.90491944E-01 -1.56418969E-02  0.00000000E+00  0.00000000E+00  5.42248340E-03
  0.00000000E+00 -1.99158802E-01 -6.95221443E-02  0.00000000E+00 -2.70820800E-02
  5.56449605E-03  0.00000000E+00  0.00000000E+00  2.55535033E-02  0.00000000E+00
  0.00000000E+00  0.00000000E+00  0.00000000E+00  0.00000000E+00  6.35864529E-01
  0.00000000E+00  0.00000000E+00  5.00234698E-01  0.00000000E+00  0.00000000E+00
  0.00000000E+00 -1.58769507E-02  0.00000000E+00  0.00000000E+00  0.00000000E+00
  0.00000000E+00  0.00000000E+00  2.55535033E-02  0.00000000E+00  0.00000000E+00
 -1.01441673E-01 -7.63067964E-01  0.00000000E+00  3.99997764E-03 -9.87991724E-03
 -8.45093442E-02  8.24031368E-02  8.65128529E-01  0.00000000E+00  0.00000000E+00
 -2.34992232E-01  0.00000000E+00  0.00000000E+00 -3.69582981E-01  6.63184628E-03
  0.00000000E+00  0.00000000E+00 -2.55045083E-03  0.00000000E+00 -1.01441673E-01
 -7.63067964E-01  0.00000000E+00 -3.99997764E-03 -9.87991724E-03  5.92347633E-02
  1.18834862E+00  0.00000000E+00 -1.13191623E-02  4.39297019E-03  0.00000000E+00
  0.00000000E+00  0.00000000E+00  0.00000000E+00 -3.22312056E-01  0.00000000E+00
  0.00000000E+00 -6.64895526E-01  0.00000000E+00  0.00000000E+00  0.00000000E+00
  1.14472856E-02  0.00000000E+00  0.00000000E+00 -5.92347633E-02 -1.18834862E+00
  0.00000000E+00 -1.13191623E-02 -4.39297019E-03  9.31595263E-01 -8.34149932E-01
  0.00000000E+00  4.42912803E-02 -1.23857739E-01  0.00000000E+00  0.00000000E+00
  0.00000000E+00  0.00000000E+00 -3.03202975E-01  0.00000000E+00  0.00000000E+00
 -2.47877245E-01  0.00000000E+00  0.00000000E+00  0.00000000E+00 -9.37682693E-02
  0.00000000E+00  0.00000000E+00 -9.31595263E-01  8.34149932E-01  0.00000000E+00
  4.42912803E-02  1.23857739E-01  8.81821569E-01 -6.39632239E-01  0.00000000E+00
  1.87249094E-01 -1.96114600E-02  3.61172004E-02 -2.40115473E-01  3.07932955E-01
  0.00000000E+00  0.00000000E+00  2.82759182E-01  0.00000000E+00  0.00000000E+00
  6.97920146E-02 -1.09705263E-02  0.00000000E+00  0.00000000E+00 -8.46922271E-02
  0.00000000E+00  8.81821569E-01 -6.39632239E-01  0.00000000E+00 -1.87249094E-01
 -1.96114600E-02  3.07943371E-01  1.14425138E-01  0.00000000E+00 -5.28772170E-02
  2.98626786E-01  4.15456015E-02 -9.97814489E-02 -4.29838913E-01  0.00000000E+00
  0.00000000E+00 -8.00160376E-01  0.00000000E+00  0.00000000E+00  1.07660829E+00
 -2.58425876E-02  0.00000000E+00  0.00000000E+00 -1.45709788E-02  0.00000000E+00
  3.07943371E-01  1.14425138E-01  0.00000000E+00  5.28772170E-02  2.98626786E-01
  0.00000000E+00  0.00000000E+00 -1.17541360E-01  0.00000000E+00  0.00000000E+00
  0.00000000E+00  0.00000000E+00  0.00000000E+00  9.47768488E-01  0.00000000E+00
  0.00000000E+00 -9.36908630E-01  0.00000000E+00  0.00000000E+00  0.00000000E+00
  7.14160067E-03  0.00000000E+00  0.00000000E+00  0.00000000E+00  0.00000000E+00
  0.00000000E+00 -1.17541360E-01  0.00000000E+00  0.00000000E+00 -3.08426164E-01
 -6.21245311E-01  0.00000000E+00  3.59928471E-01 -6.46461264E-02  0.00000000E+00
  0.00000000E+00  0.00000000E+00  0.00000000E+00 -7.60448180E-01  0.00000000E+00
  0.00000000E+00  1.59379466E+00  0.00000000E+00  0.00000000E+00  0.00000000E+00
  4.53681812E-03  0.00000000E+00  0.00000000E+00  3.08426164E-01  6.21245311E-01
  0.00000000E+00  3.59928471E-01  6.46461264E-02  0.00000000E+00  0.00000000E+00
  6.77974225E-01  0.00000000E+00  0.00000000E+00  0.00000000E+00  0.00000000E+00
  0.00000000E+00  0.00000000E+00  0.00000000E+00  0.00000000E+00  0.00000000E+00
  0.00000000E+00  0.00000000E+00  0.00000000E+00  0.00000000E+00  0.00000000E+00
  0.00000000E+00  1.44399607E-01  0.00000000E+00  0.00000000E+00 -6.77974225E-01
  0.00000000E+00  0.00000000E+00  2.31353480E-01 -2.06226927E-01  0.00000000E+00
 -3.14741089E-01 -5.12151813E-01  3.54021962E-02 -6.96562677E-01  7.46664662E-01
  0.00000000E+00  0.00000000E+00 -2.66531078E-01  0.00000000E+00  0.00000000E+00
  6.74642161E-01  1.39566744E-01  0.00000000E+00  0.00000000E+00  3.76478327E-02
  0.00000000E+00  2.31353480E-01 -2.06226927E-01  0.00000000E+00  3.14741089E-01
 -5.12151813E-01  0.00000000E+00  0.00000000E+00  7.42441337E-01  0.00000000E+00
  0.00000000E+00  0.00000000E+00  0.00000000E+00  0.00000000E+00  1.90271434E-01
  0.00000000E+00  0.00000000E+00 -6.88094867E-01  0.00000000E+00  0.00000000E+00
  0.00000000E+00 -1.58660684E-01  0.00000000E+00  0.00000000E+00  0.00000000E+00
  0.00000000E+00  0.00000000E+00  7.42441337E-01  0.00000000E+00  0.00000000E+00
 -3.94695147E-01 -1.10810954E-01  0.00000000E+00 -3.72207699E-01 -6.61533883E-01
  0.00000000E+00  0.00000000E+00  0.00000000E+00  0.00000000E+00 -2.37482720E-01
  0.00000000E+00  0.00000000E+00  1.00854206E+00  0.00000000E+00  0.00000000E+00
  0.00000000E+00  1.88293322E-02  0.00000000E+00  0.00000000E+00  3.94695147E-01
  1.10810954E-01  0.00000000E+00 -3.72207699E-01  6.61533883E-01 -5.45584207E-01
 -2.96803009E-01  0.00000000E+00  2.43938435E-01  1.81273641E-01  1.92874555E-02
 -1.65162145E+00  2.38833061E+00  0.00000000E+00  0.00000000E+00  2.06512060E-01
  0.00000000E+00  0.00000000E+00 -8.73567834E-01 -1.20594934E-01  0.00000000E+00
  0.00000000E+00  9.39892246E-02  0.00000000E+00 -5.45584207E-01 -2.96803009E-01
  0.00000000E+00 -2.43938435E-01  1.81273641E-01 -1.46381258E-01 -3.40121450E-01
  0.00000000E+00  6.35824675E-01 -5.38017016E-01  0.00000000E+00  0.00000000E+00
  0.00000000E+00  0.00000000E+00  6.76119818E-01  0.00000000E+00  0.00000000E+00
  2.44906254E-01  0.00000000E+00  0.00000000E+00  0.00000000E+00  1.16753468E-01
  0.00000000E+00  0.00000000E+00  1.46381258E-01  3.40121450E-01  0.00000000E+00
  6.35824675E-01  5.38017016E-01 -4.31953801E-01 -2.55235356E-01  0.00000000E+00
  8.14592866E-01 -4.22243837E-01 -7.62669927E-02  1.06808499E-02  1.32736571E+00
  0.00000000E+00  0.00000000E+00 -4.76759090E-01  0.00000000E+00  0.00000000E+00
 -3.99415347E-01 -7.77996340E-02  0.00000000E+00  0.00000000E+00  2.00463110E-01
  0.00000000E+00 -4.31953801E-01 -2.55235356E-01  0.00000000E+00 -8.14592866E-01
 -4.22243837E-01  0.00000000E+00  0.00000000E+00  2.91716871E-01  0.00000000E+00
  0.00000000E+00  0.00000000E+00  0.00000000E+00  0.00000000E+00  4.93249852E-02
  0.00000000E+00  0.00000000E+00 -2.13904354E-01  0.00000000E+00  0.00000000E+00
  0.00000000E+00  1.01096672E+00  0.00000000E+00  0.00000000E+00  0.00000000E+00
  0.00000000E+00  0.00000000E+00  2.91716871E-01  0.00000000E+00  0.00000000E+00
  0.00000000E+00  0.00000000E+00 -2.99117404E-01  0.00000000E+00  0.00000000E+00
  0.00000000E+00  0.00000000E+00  0.00000000E+00  0.00000000E+00  0.00000000E+00
  0.00000000E+00  0.00000000E+00  0.00000000E+00  0.00000000E+00  0.00000000E+00
  0.00000000E+00  0.00000000E+00  0.00000000E+00  1.02929291E+00  0.00000000E+00
  0.00000000E+00  2.99117404E-01  0.00000000E+00  0.00000000E+00 -2.14689143E-01
 -3.99554293E-02  0.00000000E+00  3.10196634E-01  2.40218145E-01 -1.33381613E-02
 -1.58568114E-01  4.47601954E-01  0.00000000E+00  0.00000000E+00  3.32973315E-02
  0.00000000E+00  0.00000000E+00 -4.12067121E-01  1.02683682E+00  0.00000000E+00
  0.00000000E+00  4.08278808E-02  0.00000000E+00 -2.14689143E-01 -3.99554293E-02
  0.00000000E+00 -3.10196634E-01  2.40218145E-01 -8.11476445E-01 -1.82674646E-01
  0.00000000E+00  5.68300382E-01 -4.12516325E-01 -6.42590664E-02 -4.58276235E-01
  1.79467612E+00  0.00000000E+00  0.00000000E+00 -1.90773284E-01  0.00000000E+00
  0.00000000E+00 -7.12876264E-01  3.78901826E-03  0.00000000E+00  0.00000000E+00
 -1.13496264E+00  0.00000000E+00 -8.11476445E-01 -1.82674646E-01  0.00000000E+00
 -5.68300382E-01 -4.12516325E-01  7.28933154E-01  2.52614976E-01  0.00000000E+00
 -5.32988997E-01  4.03261622E-01  0.00000000E+00  0.00000000E+00  0.00000000E+00
  0.00000000E+00 -2.16329975E-01  0.00000000E+00  0.00000000E+00 -1.00738394E+00
  0.00000000E+00  0.00000000E+00  0.00000000E+00  1.24029840E+00  0.00000000E+00
  0.00000000E+00 -7.28933154E-01 -2.52614976E-01  0.00000000E+00 -5.32988997E-01
 -4.03261622E-01
Total SCF Density                          R   N=         300
  3.04995349E-01  1.00329328E-01  3.55047518E-02  1.92592994E-34  9.62964972E-35
  1.30596306E-03 -3.43046046E-02 -1.03259847E-02 -3.61111865E-35  4.33223542E-03
  1.92027338E-02  6.00685269E-03  1.20370622E-35 -1.97752020E-03  2.10030212E-03
 -3.49411675E-02  3.65349985E-03 -4.81482486E-35  8.80124841E-03 -7.46911239E-03
  2.08628272E+00  7.57141700E-02 -5.99046970E-03  9.62964972E-35 -1.80531164E-02
  1.51102501E-02 -1.80239690E-01  4.51107149E-01  1.45678608E-02 -2.76013285E-02
  4.81482486E-35 -9.80660452E-03  1.69604203E-02 -2.37234996E-01  4.95842825E-01
  5.89939703E-01 -1.54074396E-33 -7.70371978E-34  3.24971327E-02  0.00000000E+00
 -1.92592994E-34  0.00000000E+00  0.00000000E+00  0.00000000E+00  8.08647399E-01
  2.87172156E-01  1.06427675E-01  0.00000000E+00 -2.41802354E-02  2.66100544E-02
  0.00000000E+00  0.00000000E+00  0.00000000E+00 -9.24446373E-33  4.45125200E-01
 -2.29443311E-01 -7.63401697E-02 -1.92592994E-34  3.20984506E-02  4.41625127E-03
 -4.74404930E-02  9.70923989E-02  2.64774331E-01  0.00000000E+00  0.00000000E+00
  5.85359033E-01 -7.70371978E-34 -3.85185989E-34  2.55654980E-02  0.00000000E+00
 -9.62964972E-35  0.00000000E+00  0.00000000E+00  0.00000000E+00  6.36163002E-01
 -4.62223187E-33  0.00000000E+00  5.00469507E-01  1.53327405E-01  5.68240300E-02
  0.00000000E+00 -1.29103490E-02  1.42076817E-02  0.00000000E+00  0.00000000E+00
  0.00000000E+00 -4.62223187E-33  2.37661941E-01  0.00000000E+00 -4.62223187E-33
  1.26892834E-01 -1.56899515E-01 -5.44287467E-02 -9.62964972E-35  2.14175417E-02
  4.20226629E-03 -4.48641093E-02  1.00906337E-01  2.22687015E-01  0.00000000E+00
  0.00000000E+00  4.21002544E-01  0.00000000E+00  0.00000000E+00  3.05015066E-01
  6.43577495E-03  2.19508098E-03  1.63628814E-35 -8.87495185E-04 -1.52444324E-04
  1.54455011E-03 -3.55920795E-03 -8.43310389E-03  0.00000000E+00  0.00000000E+00
 -1.69199585E-02  0.00000000E+00  0.00000000E+00 -1.22230607E-02  4.90386169E-04
  3.33580852E-34  1.11193617E-34 -8.11423422E-04  0.00000000E+00  1.38992021E-35
 -4.69916916E-38  2.12754067E-36  1.59315732E-35 -2.01911795E-02  2.36286437E-34
 -6.22188756E-35 -1.58844032E-02  1.66790426E-34 -4.89475966E-35  3.84834728E-37
  5.04155124E-04 -1.37954033E-02 -5.11265685E-03 -2.77984043E-35  1.16158928E-03
 -1.27831485E-03 -2.17952798E-35  4.21472717E-35  5.63002449E-35  6.25464097E-34
 -2.13832766E-02 -2.63569233E-34  3.89177660E-34 -1.14169924E-02 -1.40725296E-34
  1.32769272E-35 -3.20988324E-35  1.02722676E-03 -3.04323516E-03 -8.40790999E-04
 -1.33562646E-35  4.66889667E-04 -3.26844749E-05  8.76496749E-04 -1.36448325E-03
  3.01236288E-04  0.00000000E+00  0.00000000E+00  6.16641473E-03  0.00000000E+00
  0.00000000E+00  4.26480865E-03 -1.74137598E-04  5.50635256E-37  2.75921618E-37
  7.81529678E-05  8.33952129E-35  2.08488032E-35 -7.00222346E-36 -6.94960107E-36
 -4.34350067E-37  3.47480054E-35 -8.33952129E-35 -1.45941623E-34 -4.65408216E-51
  9.30816432E-51 -1.11193617E-34 -3.21885094E-51  6.43770189E-51 -5.55968086E-35
  5.64655087E-36  4.45460785E-52 -8.90921570E-52 -2.25694915E-36  2.34421356E-36
 -6.55424109E-02 -3.69941255E-02  2.40741243E-35 -3.10488664E-03 -1.51321755E-02
 -3.49411675E-02  7.57141700E-02  1.45678608E-02  1.54074396E-33 -2.87172156E-01
 -2.29443311E-01  7.70371978E-34 -1.53327405E-01 -1.56899515E-01  6.43577495E-03
 -3.89177660E-34  1.37954033E-02 -3.04323516E-03  1.11193617E-34  3.04995349E-01
 -3.69941255E-02 -1.53881204E-02 -1.20370622E-35  1.23681264E-03 -6.71786480E-03
  3.65349985E-03 -5.99046970E-03 -2.76013285E-02  7.70371978E-34 -1.06427675E-01
 -7.63401697E-02  3.85185989E-34 -5.68240300E-02 -5.44287467E-02  2.19508098E-03
 -1.38992021E-34  5.11265685E-03 -8.40790999E-04  2.08488032E-35  1.00329328E-01
  3.55047518E-02 -2.40741243E-35  1.20370622E-35  1.30596306E-03  0.00000000E+00
  6.01853108E-36  4.81482486E-35 -9.62964972E-35 -4.81482486E-35  3.24971327E-02
  0.00000000E+00  1.92592994E-34  2.55654980E-02  0.00000000E+00  9.62964972E-35
 -1.63628814E-35 -8.11423422E-04 -2.08488032E-35  1.33562646E-35  7.00222346E-36
 -1.92592994E-34 -9.62964972E-35  1.30596306E-03  3.10488664E-03 -1.23681264E-03
  0.00000000E+00 -1.70518225E-03 -9.13519798E-04 -8.80124841E-03  1.80531164E-02
  9.80660452E-03  0.00000000E+00 -2.41802354E-02 -3.20984506E-02  0.00000000E+00
 -1.29103490E-02 -2.14175417E-02  8.87495185E-04  0.00000000E+00  1.16158928E-03
 -4.66889667E-04  6.94960107E-36  3.43046046E-02  1.03259847E-02 -3.61111865E-35
  4.33223542E-03 -1.51321755E-02 -6.71786480E-03 -6.01853108E-36  9.13519798E-04
 -1.08125216E-03 -7.46911239E-03  1.51102501E-02  1.69604203E-02  1.92592994E-34
 -2.66100544E-02  4.41625127E-03  9.62964972E-35 -1.42076817E-02  4.20226629E-03
 -1.52444324E-04 -1.38992021E-35  1.27831485E-03 -3.26844749E-05 -4.34350067E-37
  1.92027338E-02  6.00685269E-03 -1.20370622E-35  1.97752020E-03  2.10030212E-03
Mulliken Charges                           R   N=           3
  2.25223789E-01 -4.50447578E-01  2.25223789E-01
ONIOM Charges                              I   N=          16
           0           0           0           0           0           0
           0           0           0           0           0           0
           0           0           0           0
ONIOM Multiplicities                       I   N=          16
           1           0           0           0           0           0
           0           0           0           0           0           0
           0           0           0           0
Atom Layers                                I   N=           3
           1           1           1
Atom Modifiers                             I   N=           3
           0           0           0
Force Field                                I                0
Int Atom Modified Types                    I   N=           3
           0           0           0
Link Atoms                                 I   N=           3
           0           0           0
Atom Modified MM Charges                   R   N=           3
  0.00000000E+00  0.00000000E+00  0.00000000E+00
Link Distances                             R   N=          12
  0.00000000E+00  0.00000000E+00  0.00000000E+00  0.00000000E+00  0.00000000E+00
  0.00000000E+00  0.00000000E+00  0.00000000E+00  0.00000000E+00  0.00000000E+00
  0.00000000E+00  0.00000000E+00
Cartesian Gradient                         R   N=           9
  0.00000000E+00  0.00000000E+00  0.00000000E+00  0.00000000E+00  0.00000000E+00
  0.00000000E+00  0.00000000E+00  0.00000000E+00  0.00000000E+00
Dipole Moment                              R   N=           3
 -4.61866574E-17 -3.46944695E-18 -8.17258406E-01
Quadrupole Moment                          R   N=           6
 -1.24806094E+00  1.55958830E+00 -3.11527358E-01  1.08440165E-16  6.26768067E-17
  0.00000000E+00
QEq coupling tensors                       R   N=          18
  1.24510199E-01  3.30670827E-17 -1.09202932E-01 -1.72591004E-17  1.35949057E-01
 -1.53072669E-02  2.28796159E+00  6.30758994E-16 -1.99076007E+00  3.75704877E-17
 -3.66612809E-16 -2.97201524E-01  1.24510199E-01  1.16581656E-16 -1.09202932E-01
  7.94992463E-17 -1.35949057E-01 -1.53072669E-02
