[Molden Format]
[Molpro variables]
_NUMVAR=  792.0000000000000    
_AVOGAD= 0.6022136736000000E+24
_BOLTZ= 0.1380658000000000E-22
_CLIGHT=  29979245800.00000    
_EV2006= 0.3674930886769165E-01
_EV= 0.3674932534394180E-01
_ENULL= 0.8854187817000000E-11
_KJOULE= 0.3808798324128737E-03
_KJOULE/MOL= 0.3808798324128737E-03
_CM= 0.4556335267302901E-05
_CM-1= 0.4556335267302901E-05
_DEB2SI= 0.3335641000000000E-29
_AMU2AU=  1822.888390000000    
_KCAL= 0.1593601117815568E-02
_KCAL/MOL= 0.1593601117815568E-02
_KELVIN2006= 0.3166828861084835E-05
_KELVIN= 0.3166814820820034E-05
_JOULE= 0.4359748200000000E-17
_HERTZ2006= 0.1519829850815779E-15
_HERTZ= 0.1519829846011223E-15
_HZ2006= 0.1519829850815779E-15
_HZ= 0.1519829846011223E-15
_JPCAL=  4.184000000000000    
_PLANCK= 0.6626075540000000E-33
_TOA2006= 0.5291772490000000    
_TOA= 0.5291772090000000    
_TOANG2006= 0.5291772490000000    
_TOANG= 0.5291772090000000    
_TORAD= 0.1745329251994330E-01
_TOCM=  219474.6306700000    
_TODEBYE=  2.541580000000000    
_TOEV2006=  27.21139610000000    
_TOE= 0.4803242000000000E-09
_TOEV=  27.21138390000000    
_TOHERTZ2006=  6579683899900000.    
_TOHERTZ=  6579683920700000.    
_TOHZ2006=  6579683899900000.    
_TOHZ=  6579683920700000.    
_TOK2006=  315773.3000000000    
_TOK=  315774.7000000000    
_TOKCAL=  627.5096000000000    
_TOKELVIN2006=  315773.3000000000    
_TOKELVIN=  315774.7000000000    
_TOKJ=  2625.500000000000    
_TOKJOULE=  2625.500000000000    
_TOKG= 0.1660565586000000E-26
_ANG2006=  1.889725988578923    
_ANG=  1.889726131421507    
_ANGSTROM2006=  1.889725988578923    
_ANGSTROM=  1.889726131421507    
_RPAREF=  0.000000000000000    
_RPADISS=  0.000000000000000    
_IGNORE_UNDEF=  2.000000000000000    
_STRICTCHECK=  0.000000000000000    
_SEW_ONEEL=  0.000000000000000    
_CPPDONE=FALSE
_DKROLL_DONE=  0.000000000000000    
_FOCKDONE=TRUE
_GRADONE=FALSE
_HESSDONE=FALSE
_INTDONE=TRUE
_SCFDONE=TRUE
_MODUL_BLOCK=FALSE
_MODUL_CUDA=FALSE
_MODUL_SLATER=FALSE
_MODUL_MRCC=FALSE
_MODUL_NBO6=FALSE
_MODUL_NECI=TRUE
_MODUL_AIMS=TRUE
_MRCC_EXEC=
_FITC_AO_SAVED=FALSE
_FITC_MO_SAVED=FALSE
_SHARED_FS=TRUE
_LSTYP=SEWARD
_INTYP=INTS
_GEOMTYP=ZMAT
_GRADTYP=ALASKA
_DIRECT=FALSE
_DKHO=-1.0000000000000000    
_SYNCM=  0.000000000000000    
_BASIS=CC-PVDZ
_ZORIENT= 1.0000000000000000    
_NELEC=  20.00000000000000    
!SPIN=  0.000000000000000    
_OPTCONV= 0.3148614753022594E-02
_QSDSTEP=  0.000000000000000    
_QSDIRC=  0.000000000000000    
_PROGRAM=OPTG
_CPUSTEP=  0.000000000000000    
_SYSSTEP= 0.9999999999999787E-02
_WALLSTEP= 0.1000000000000000E-01
!DFSCF=  0.000000000000000    
!SCSGRD=  0.000000000000000    
_BASINP=  610.0000000000000    
_CPUTOT=  61.08000000000001    
_CPUSORT= 0.8000000000000540E-01
_SYSSORT= 0.3000000000000025E-01
_WALLSORT= 0.1200000001117587    
_DFTEXFAC= 1.0000000000000000    
_DMX= 0.7298738533687787E-02
_DMY= -1.174781185766040    
_DMZ=  0.000000000000000    
_DMX_SCF= 0.7298738533687787E-02
_DMY_SCF= -1.174781185766040    
_DMZ_SCF=  0.000000000000000    
_EHOMO=-0.4647487706905614    
_ELUMO= 0.1655054970310718    
_ENERGY= -152.0632886573502    
_ENUC=  36.39744461115190    
_EPS1= -20.57672075614123    
_EPS2=-0.7369063475939224    
_GRADENERG= -152.0632886335052    
_GRADEXFAC=  9999.000000000000    
_GRADMETHOD= 1.0000000000000000    
_NMRMETHOD=  0.000000000000000    
_VIRIAL=-0.5350999684020052E-04
!GRID_FREEZE=-1.0000000000000000    
_ITERATIONS=  9.000000000000000    
_LASTNELEC=  20.00000000000000    
_LASTSPIN=  0.000000000000000    
_LASTSYM= 1.0000000000000000    
_MPP_PROG=  0.000000000000000    
_NPROC_MPP= 1.0000000000000000    
_NPROC_MPPX= 1.0000000000000000    
_NPROC_SMP= 1.0000000000000000    
_NUMSTEP=  0.000000000000000    
_OPTCONVMX= 0.2574393522780438E-02
_OPTCONVRMS= 0.1285416590250766E-02
_OPTGRAD= 0.3339609099152423E-04
_OPTGRADMX= 0.2612403496262379E-04
_OPTGRADRMS= 0.2783007582627019E-05
_OPTSTEP=  7.000000000000000    
_ORBITAL=  2100.200000000000    
_PI=  3.141592653589793    
_SEIG_MIN= 0.1617749194059029E-01
_SEWPROP=TRUE
_STATUS= 1.0000000000000000    
_SYSTOT=  4.580000000000000    
_VERSION=  2012001.000000000    
_WALLTOT=  65.94000000000000    
_DATE=29-Jan-16
_LASTORB=RHF
_MACHINE=Linux-2.6.32-573.12.1.el6.x86_64/qc004(x86_64) 64 bit serial version
_OUTPUT=/home/vincpohl/TestDir/MOLPRO/h2o_dimer/h2o_dimer.xml
_PGROUP=Cs
_TIME=15:38:40
_LIBMOL=/cm/shared/apps/molpro/2012.1.4openmp/molpros_2012_1_Linux_x86_64_i8/lib/
!VIBCNT=  0.000000000000000    
!RGHFCNT=  0.000000000000000    
!SURFREC=  0.000000000000000    
!POLYREC=  0.000000000000000    
!DIPREC=  0.000000000000000    
!VSCFREC=  0.000000000000000    
!VCIREC=  0.000000000000000    
!PVCIREC=  0.000000000000000    
!VMP2REC=  0.000000000000000    
!VMCSCFREC=  0.000000000000000    
!VMRCIREC=  0.000000000000000    
!VIBINFO=  0.000000000000000    
!GAREC=  0.000000000000000    
!SCFORB=  21002.00000000000    
!NEWMOL=  0.000000000000000    
!NEWSYM=  0.000000000000000    
_SLFILES=slscratch
_NGSSTO=  9.000000000000000    
_SIN=SIN
_COS=COS
_TAN=TAN
_ACOS=ACOS
_ASIN=ASIN
_ATAN=ATAN
_COSH=COSH
_SINH=SINH
_TANH=TANH
_ABS=ABS
_MOD=MOD
_ERF=ERF
_REFC=REFC
_ERFC=ERFC
_HYPOT=HYPOT
_J0=J0
_J1=J1
_JN=JN
_GAMMA=GAMMA
_LGAMMA=LGAMMA
_Y0=Y0
_Y1=Y1
_YN=YN
_EXP=EXP
_LOG=LOG
_LOG10=LOG10
_SQRT=SQRT
_INT=INT
_NINT=NINT
_MAX=MAX
_MIN=MIN
_COSMO=  0.000000000000000    
_COSMOIT=  0.000000000000000    
_COSMOES=  0.000000000000000    
_COSMOEDS=  0.000000000000000    
_COSMOEC=  0.000000000000000    
_COSMOEDCORR=  0.000000000000000    
_FEPSI= 1.0000000000000000    
_SL_IsMM=  0.000000000000000    
_SL_NSYM=  2.000000000000000    
_SL_System_BitSw=  0.000000000000000    
_SL_Unique_atoms=  0.000000000000000    
_SL_GRAD=  0.000000000000000    
_SL_MAXUPD_Hess=  5.000000000000000    
_SL_N_PRINT_COD=  5.000000000000000    
_SL_PRINT_CODES=  0.000000000000000    
_SL_BasType=  0.000000000000000    
_SL_Energy_Pred=  0.000000000000000    
_SL_New_Coords=  0.000000000000000    
_SL_Total_Nuclea=  0.000000000000000    
_SL_Highest_Mltp=  0.000000000000000    
_SL_Ref_Geom=  0.000000000000000    
_SL_Symmetry_ope= 1.0000000000000000    
_SL_agrad=  0.000000000000000    
_SL_GrdMax=  0.000000000000000    
_SL_GrdNorm=  0.000000000000000    
_SL_GrdRMS=  0.000000000000000    
!LATTICE=-1.0000000000000000    
!NEWLATTICE=  0.000000000000000    
!LATGRAD_VAR=FALSE
!SEW_LATTICE= 1.0000000000000000    
!LOCAL=  0.000000000000000    
!SAVEDOM=-1.0000000000000000    
!RESTDOM=-1.0000000000000000    
!SAVEDOM_HF=-1.0000000000000000    
!RESTDOM_HF=-1.0000000000000000    
!HESSREC=  0.000000000000000    
!FREQREC=  0.000000000000000    
!NMODREC=  0.000000000000000    
!GTASKS=  0.000000000000000    
!HTASKS=  0.000000000000000    
!THRCHG= 0.1000000000000000    
!DEBUG=-1.0000000000000000    
!CFIT_CPHF=  0.000000000000000    
!RDOMAUX_CPHF=  5.000000000000000    
!THRAO_CPHF= 0.9999999999999999E-11
!THRMO_CPHF= 0.9999999999999999E-11
!THROV_CPHF= 0.1000000000000000E-11
!THRSW_CPHF= 0.1000000000000000E-09
!THRPROD_CPHF= 0.9999999999999999E-11
!THRAOPR_CPHF= 0.1000000000000000E-11
!CFIT_SCFGRD=  0.000000000000000    
!RDOMAUX_SCFGRD=  7.000000000000000    
!THRAO_SCFGRD= 0.9999999999999999E-11
!THRMO_SCFGRD= 0.9999999999999999E-11
!THROV_SCFGRD= 0.1000000000000000E-11
!THRSW_SCFGRD= 0.1000000000000000E-09
!THRPROD_SCFGRD= 0.9999999999999999E-11
!THRAOPR_SCFGRD= 0.1000000000000000E-11
!LOCFIT_SCF=  0.000000000000000    
!LOCFIT_MP2=-1.0000000000000000    
_RIDOM=  0.000000000000000    
!CC2_METHOD=  0.000000000000000    
_BASIS2006=FALSE
_SVDDEL=-1.0000000000000000    
_SVDDELA=-1.0000000000000000    
_SVDDELP=-1.0000000000000000    
_SVDDELF=-1.0000000000000000    
_SVDDELS=-1.0000000000000000    
_SVDDEL_ABS=-1.0000000000000000    
_SVDDELA_ABS=-1.0000000000000000    
_SVDDELP_ABS=-1.0000000000000000    
_SVDDELF_ABS=-1.0000000000000000    
_SVDDELS_ABS=-1.0000000000000000    
_MAXBASIS=  0.000000000000000    
!OPT_CONICAL=  0.000000000000000    
!CLEARSP_JGRID=  0.000000000000000    
_4EXT_NDISKS= 1.0000000000000000    
!ZMP=  0.000000000000000    
_MAXIT_ZMP=  500.0000000000000    
_MAXDIS_ZMP= 100.00000000000000    
_ACCU_ZMP=  14.00000000000000    
_SHIFTA_ZMP=-100.00000000000000    
!EMBEDFLAG= 1.0000000000000000    
!EMBED=FALSE
!EMBED_F12=FALSE
!EMBEDNUC=  0.000000000000000    
_EMBEDENERGY=  0.000000000000000    
_KSPACETIME=  0.000000000000000    
_RSPACETIME=  0.000000000000000    
!EMBED_DFC=FALSE
!NUM_VOIDS=  0.000000000000000    
_IBODY=  0.000000000000000    
_EMBE_TOTAL=  0.000000000000000    
_EMBE_HF=  0.000000000000000    
_EMBE_CORR=  0.000000000000000    
!EDFT=  0.000000000000000    
_IFASTLATGRAD=  0.000000000000000    
_SINDEX=  0.000000000000000    
GEOMTYP=XYZ
GX1=-0.2053954283578415E-01
GY1=  1.559413835776124    
GZ1=  0.000000000000000    
GX2= 0.8854915610557074    
GY2=  1.830873430841193    
GZ2=  0.000000000000000    
GX3= 0.1739523804569809E-01
GY3= 0.6098225992055749    
GZ3=  0.000000000000000    
GX4= 0.3580570455298555E-01
GY4= -1.425231215601446    
GZ4=  0.000000000000000    
GX5=-0.4151339804093038    
GY5= -1.783877825110722    
GZ5= 0.7519282074550488    
GX6=-0.4151339804093038    
GY6= -1.783877825110722    
GZ6=-0.7519282074550488    
MD=h2o_dimer.molden
[Atoms] Angs
O     1    8        -0.0205395428        1.5594138358        0.0000000000
H     2    1         0.8854915611        1.8308734308        0.0000000000
H     3    1         0.0173952380        0.6098225992        0.0000000000
O     4    8         0.0358057046       -1.4252312156        0.0000000000
H     5    1        -0.4151339804       -1.7838778251        0.7519282075
H     6    1        -0.4151339804       -1.7838778251       -0.7519282075
[GTO]
  1 0
 s    9  1.00
  0.1172000000D+05  0.7100002503D-03
  0.1759000000D+04  0.5470001928D-02
  0.4008000000D+03  0.2783700981D-01
  0.1137000000D+03  0.1048000369D+00
  0.3703000000D+02  0.2830620998D+00
  0.1327000000D+02  0.4487191582D+00
  0.5025000000D+01  0.2709520955D+00
  0.1013000000D+01  0.1545800545D-01
  0.3023000000D+00 -0.2585000911D-02
 s    9  1.00
  0.1172000000D+05 -0.1600000154D-03
  0.1759000000D+04 -0.1263000121D-02
  0.4008000000D+03 -0.6267000602D-02
  0.1137000000D+03 -0.2571600247D-01
  0.3703000000D+02 -0.7092400682D-01
  0.1327000000D+02 -0.1654110159D+00
  0.5025000000D+01 -0.1169550112D+00
  0.1013000000D+01  0.5573680536D+00
  0.3023000000D+00  0.5727590551D+00
 s    9  1.00
  0.1172000000D+05  0.0000000000D+00
  0.1759000000D+04  0.0000000000D+00
  0.4008000000D+03  0.0000000000D+00
  0.1137000000D+03  0.0000000000D+00
  0.3703000000D+02  0.0000000000D+00
  0.1327000000D+02  0.0000000000D+00
  0.5025000000D+01  0.0000000000D+00
  0.1013000000D+01  0.0000000000D+00
  0.3023000000D+00  0.1000000000D+01
 p    4  1.00
  0.1770000000D+02  0.4301799242D-01
  0.3854000000D+01  0.2289129597D+00
  0.1046000000D+01  0.5087279104D+00
  0.2753000000D+00  0.4605309189D+00
 p    4  1.00
  0.1770000000D+02  0.0000000000D+00
  0.3854000000D+01  0.0000000000D+00
  0.1046000000D+01  0.0000000000D+00
  0.2753000000D+00  0.1000000000D+01
 d    1  1.00
  0.1185000000D+01  0.1000000000D+01
  
  2 0
 s    4  1.00
  0.1301000000D+02  0.1968498999D-01
  0.1962000000D+01  0.1379769298D+00
  0.4446000000D+00  0.4781477569D+00
  0.1220000000D+00  0.5012397451D+00
 s    4  1.00
  0.1301000000D+02  0.0000000000D+00
  0.1962000000D+01  0.0000000000D+00
  0.4446000000D+00  0.0000000000D+00
  0.1220000000D+00  0.1000000000D+01
 p    1  1.00
  0.7270000000D+00  0.1000000000D+01
  
  3 0
 s    4  1.00
  0.1301000000D+02  0.1968498999D-01
  0.1962000000D+01  0.1379769298D+00
  0.4446000000D+00  0.4781477569D+00
  0.1220000000D+00  0.5012397451D+00
 s    4  1.00
  0.1301000000D+02  0.0000000000D+00
  0.1962000000D+01  0.0000000000D+00
  0.4446000000D+00  0.0000000000D+00
  0.1220000000D+00  0.1000000000D+01
 p    1  1.00
  0.7270000000D+00  0.1000000000D+01
  
  4 0
 s    9  1.00
  0.1172000000D+05  0.7100002503D-03
  0.1759000000D+04  0.5470001928D-02
  0.4008000000D+03  0.2783700981D-01
  0.1137000000D+03  0.1048000369D+00
  0.3703000000D+02  0.2830620998D+00
  0.1327000000D+02  0.4487191582D+00
  0.5025000000D+01  0.2709520955D+00
  0.1013000000D+01  0.1545800545D-01
  0.3023000000D+00 -0.2585000911D-02
 s    9  1.00
  0.1172000000D+05 -0.1600000154D-03
  0.1759000000D+04 -0.1263000121D-02
  0.4008000000D+03 -0.6267000602D-02
  0.1137000000D+03 -0.2571600247D-01
  0.3703000000D+02 -0.7092400682D-01
  0.1327000000D+02 -0.1654110159D+00
  0.5025000000D+01 -0.1169550112D+00
  0.1013000000D+01  0.5573680536D+00
  0.3023000000D+00  0.5727590551D+00
 s    9  1.00
  0.1172000000D+05  0.0000000000D+00
  0.1759000000D+04  0.0000000000D+00
  0.4008000000D+03  0.0000000000D+00
  0.1137000000D+03  0.0000000000D+00
  0.3703000000D+02  0.0000000000D+00
  0.1327000000D+02  0.0000000000D+00
  0.5025000000D+01  0.0000000000D+00
  0.1013000000D+01  0.0000000000D+00
  0.3023000000D+00  0.1000000000D+01
 p    4  1.00
  0.1770000000D+02  0.4301799242D-01
  0.3854000000D+01  0.2289129597D+00
  0.1046000000D+01  0.5087279104D+00
  0.2753000000D+00  0.4605309189D+00
 p    4  1.00
  0.1770000000D+02  0.0000000000D+00
  0.3854000000D+01  0.0000000000D+00
  0.1046000000D+01  0.0000000000D+00
  0.2753000000D+00  0.1000000000D+01
 d    1  1.00
  0.1185000000D+01  0.1000000000D+01
  
  5 0
 s    4  1.00
  0.1301000000D+02  0.1968498999D-01
  0.1962000000D+01  0.1379769298D+00
  0.4446000000D+00  0.4781477569D+00
  0.1220000000D+00  0.5012397451D+00
 s    4  1.00
  0.1301000000D+02  0.0000000000D+00
  0.1962000000D+01  0.0000000000D+00
  0.4446000000D+00  0.0000000000D+00
  0.1220000000D+00  0.1000000000D+01
 p    1  1.00
  0.7270000000D+00  0.1000000000D+01
  
  6 0
 s    4  1.00
  0.1301000000D+02  0.1968498999D-01
  0.1962000000D+01  0.1379769298D+00
  0.4446000000D+00  0.4781477569D+00
  0.1220000000D+00  0.5012397451D+00
 s    4  1.00
  0.1301000000D+02  0.0000000000D+00
  0.1962000000D+01  0.0000000000D+00
  0.4446000000D+00  0.0000000000D+00
  0.1220000000D+00  0.1000000000D+01
 p    1  1.00
  0.7270000000D+00  0.1000000000D+01
 
 
[MO]
 Sym=      1.1
 Ene=     -20.5801
 Spin= Alpha
 Occup=    2.000000
1 0.000046555806035
2 0.000201390308756
3 -0.000328351878900
4 -0.000012959254283
5 -0.000059773901762
6 0.0
7 0.000059843587264
8 0.000187897532343
9 0.0
10 0.000003687761661
11 -0.000004635565530
12 0.000000947803869
13 -0.000001052724416
14 0.0
15 0.0
16 0.000019912302365
17 -0.000158411233620
18 0.000013691307931
19 -0.000005775041598
20 0.0
21 0.000046214611595
22 0.000340701213825
23 -0.000014314343188
24 -0.000056011525525
25 0.0
26 1.00044490581892
27 0.002543185358960
28 -0.001526272744459
29 -0.002005778327812
30 -0.001443192339582
31 0.0
32 0.001260258791187
33 0.000771594558068
34 0.0
35 -0.000043777679856
36 -0.000095297370703
37 0.000139075050560
38 0.000095399847784
39 0.0
40 0.0
41 -0.000495412194708
42 0.000612937742445
43 -0.000395571067317
44 -0.000286878347295
45 0.000610270017702
46 -0.000495412194708
47 0.000612937742445
48 -0.000395571067317
49 -0.000286878347295
50 -0.000610270017702
 Sym=      2.1
 Ene=     -20.5161
 Spin= Alpha
 Occup=    2.000000
1 1.00049424820959
2 0.002720117933667
3 -0.001986848380506
4 0.002087899210423
5 -0.001444154412486
6 0.0
7 -0.001258829150793
8 0.001179897629383
9 0.0
10 0.000070572665075
11 0.000064891281673
12 -0.000135463946748
13 0.000064925314680
14 0.0
15 0.0
16 -0.000480077797937
17 0.000450911000410
18 0.000783596157345
19 0.000192714151998
20 0.0
21 -0.000334504429537
22 0.001178488746145
23 0.000047768839896
24 -0.000705439184791
25 0.0
26 0.000064386188134
27 0.000229599670618
28 -0.000249756894828
29 0.000007021801339
30 0.000146097404071
31 0.0
32 -0.000056487011527
33 -0.000519553493817
34 0.0
35 0.000005680778999
36 -0.000009097880019
37 0.000003417101021
38 0.000024780388666
39 0.0
40 0.0
41 -0.000022193401016
42 -0.000129584839368
43 -0.000027118423037
44 0.000062966894300
45 0.000048710134818
46 -0.000022193401016
47 -0.000129584839368
48 -0.000027118423037
49 0.000062966894300
50 -0.000048710134818
 Sym=      3.1
 Ene=      -1.3722
 Spin= Alpha
 Occup=    2.000000
1 -0.000053812333189
2 0.051899622844615
3 -0.014436538717322
4 0.004826268075765
5 -0.007268311338202
6 0.0
7 -0.002362963275720
8 0.005896483478143
9 0.0
10 0.000109207063039
11 -0.000013302516286
12 -0.000095904546753
13 -0.000107185889721
14 0.0
15 0.0
16 0.018571319825664
17 -0.011442160273745
18 -0.002119826115719
19 -0.001135237689733
20 0.0
21 0.031165050234997
22 -0.005534220929423
23 -0.000252625259447
24 0.003172932489719
25 0.0
26 -0.008604878674132
27 0.86853441222885
28 -0.12612376162563
29 -0.091301064819495
30 -0.068123726792146
31 0.0
32 0.052949311301436
33 0.042298807563846
34 0.0
35 -0.000827118121985
36 -0.001268106297257
37 0.002095224419242
38 0.002507971213572
39 0.0
40 0.0
41 0.33206491884354
42 -0.15900918335735
43 0.015969619169875
44 0.012666844931068
45 -0.037744195966512
46 0.33206491884354
47 -0.15900918335735
48 0.015969619169875
49 0.012666844931068
50 0.037744195966512
 Sym=      4.1
 Ene=      -1.3114
 Spin= Alpha
 Occup=    2.000000
1 -0.009257225736425
2 0.86441847320181
3 -0.12413626462323
4 0.095658308761608
5 -0.066806730939953
6 0.0
7 -0.057212965422514
8 0.039616978028678
9 0.0
10 0.001616229075378
11 0.001580305159330
12 -0.003196534234709
13 0.000549083184121
14 0.0
15 0.0
16 0.33910056258571
17 -0.15868756760599
18 -0.038893486362973
19 -0.018612862838561
20 0.0
21 0.32676540922493
22 -0.15518292994740
23 0.004764240472495
24 0.043380324045497
25 0.0
26 0.000611929188003
27 -0.056616344911124
28 0.007840423694140
29 0.006887892831486
30 0.011669909465862
31 0.0
32 -0.003908537346545
33 -0.004420108838864
34 0.0
35 -0.000000898353079
36 0.000241648015550
37 -0.000240749662471
38 -0.000261739240898
39 0.0
40 0.0
41 -0.024646368513720
42 0.011918819740094
43 -0.001145470531445
44 -0.000595238909030
45 0.002755957030234
46 -0.024646368513720
47 0.011918819740094
48 -0.001145470531445
49 -0.000595238909030
50 -0.002755957030234
 Sym=      1.2
 Ene=      -0.7352
 Spin= Alpha
 Occup=    2.000000
1 0.0
2 0.0
3 0.0
4 0.0
5 0.0
6 0.004568116703268
7 0.0
8 0.0
9 0.000936235095084
10 0.0
11 0.0
12 0.0
13 0.0
14 0.000091725287999
15 -0.000072816401593
16 0.0
17 0.0
18 0.0
19 0.0
20 0.000035165333802
21 0.0
22 0.0
23 0.0
24 0.0
25 0.001289736591145
26 0.0
27 0.0
28 0.0
29 0.0
30 0.0
31 0.72145854868315
32 0.0
33 0.0
34 -0.10938374454112
35 0.0
36 0.0
37 0.0
38 0.0
39 -0.021242277218659
40 -0.015969985105158
41 0.55645779805274
42 -0.19909720567514
43 0.025661554777209
44 0.020649210100728
45 -0.023859304438520
46 -0.55645779805274
47 0.19909720567514
48 -0.025661554777209
49 -0.020649210100728
50 -0.023859304438520
 Sym=      5.1
 Ene=      -0.6799
 Spin= Alpha
 Occup=    2.000000
1 -0.000386776582471
2 0.004610822556283
3 0.004199775064484
4 0.38698557238727
5 0.57286166796375
6 0.0
7 -0.060648753469716
8 -0.086428877716951
9 0.0
10 0.020868714227838
11 -0.020701350125617
12 -0.000167364102221
13 0.008894982576150
14 0.0
15 0.0
16 0.53688453662002
17 -0.18066280242878
18 -0.038244779625884
19 0.001467527839932
20 0.0
21 -0.54076120927707
22 0.17928655209205
23 0.012316845981657
24 -0.039107942730945
25 0.0
26 0.000840534370136
27 -0.030500489464607
28 -0.034646940099389
29 -0.059952515914847
30 -0.17600937207563
31 0.0
32 0.009281332588518
33 0.003205449136925
34 0.0
35 0.000425360713800
36 -0.000349743208829
37 -0.000075617504970
38 0.003669387210878
39 0.0
40 0.0
41 0.077726505182400
42 -0.031286979978328
43 0.001474390048187
44 -0.002521071834825
45 -0.007779206696989
46 0.077726505182400
47 -0.031286979978328
48 0.001474390048187
49 -0.002521071834825
50 0.007779206696989
 Sym=      6.1
 Ene=      -0.6003
 Spin= Alpha
 Occup=    2.000000
1 0.003464166456534
2 -0.072980512529026
3 -0.069260197340728
4 0.21114403653191
5 0.054420239701033
6 0.0
7 -0.007940060380429
8 -0.005757396527306
9 0.0
10 0.007054913858363
11 -0.004802231272692
12 -0.002252682585671
13 -0.000164770270703
14 0.0
15 0.0
16 0.18473731041514
17 -0.073070797725487
18 -0.010452721336849
19 -0.004605615104864
20 0.0
21 -0.034783389955256
22 0.060647546386774
23 0.008240419972850
24 -0.006170124340098
25 0.0
26 -0.002559160582493
27 0.27220599470283
28 0.17811062431563
29 0.59670695434853
30 0.47705494952731
31 0.0
32 -0.003858250655134
33 -0.008511506066898
34 0.0
35 -0.006483836099090
36 0.002214448770766
37 0.004269387328323
38 -0.015186003568443
39 0.0
40 0.0
41 -0.33258870575044
42 0.12609095680835
43 0.004428571376494
44 0.003951032901033
45 0.031730592232087
46 -0.33258870575044
47 0.12609095680835
48 0.004428571376494
49 0.003951032901033
50 -0.031730592232087
 Sym=      7.1
 Ene=      -0.5435
 Spin= Alpha
 Occup=    2.000000
1 0.001584792331587
2 -0.25852520156315
3 -0.15231671991514
4 0.57202174184584
5 -0.36928932125078
6 0.0
7 -0.004051511941391
8 -0.009600816356384
9 0.0
10 0.009735516878728
11 0.001141240705103
12 -0.010876757583831
13 -0.010025491153128
14 0.0
15 0.0
16 0.32927500017967
17 -0.12282575070098
18 -0.012106206392066
19 -0.025103768191602
20 0.0
21 0.27352484008361
22 -0.12402070011973
23 0.019241294176605
24 0.017345558130029
25 0.0
26 -0.000865087362070
27 -0.077072532619957
28 -0.032557915294100
29 -0.39210116925858
30 0.23012496246812
31 0.0
32 -0.017063425625229
33 0.031151644191867
34 0.0
35 0.007469381301765
36 -0.005711759367843
37 -0.001757621933921
38 0.001020677755095
39 0.0
40 0.0
41 0.066834678888255
42 -0.022993299504109
43 -0.010179272104425
44 0.008857506670907
45 -0.006787999129316
46 0.066834678888255
47 -0.022993299504109
48 -0.010179272104425
49 0.008857506670907
50 0.006787999129316
 Sym=      8.1
 Ene=      -0.5177
 Spin= Alpha
 Occup=    2.000000
1 0.000894009046188
2 0.11527100184541
3 0.054238794572247
4 -0.25446379862757
5 0.32228467064923
6 0.0
7 -0.005664164152931
8 0.004710554656346
9 0.0
10 -0.001574287267351
11 -0.004965339942746
12 0.006539627210097
13 0.007207036157248
14 0.0
15 0.0
16 -0.093810677582917
17 0.026974730543408
18 0.000971387997375
19 0.015885588487588
20 0.0
21 -0.21355409425548
22 0.14121993364976
23 -0.011436444258894
24 -0.014834800479438
25 0.0
26 -0.000978984183162
27 0.021431032054372
28 0.024788519740312
29 -0.45869685291337
30 0.66668575329060
31 0.0
32 -0.042596916162627
33 0.038547781712724
34 0.0
35 0.012459427809526
36 -0.012653342288243
37 0.000193914478718
38 -0.005049147067602
39 0.0
40 0.0
41 -0.029129353526806
42 0.002573134958449
43 -0.016985839293930
44 0.021616237378570
45 0.004162503171900
46 -0.029129353526806
47 0.002573134958449
48 -0.016985839293930
49 0.021616237378570
50 -0.004162503171900
 Sym=      2.2
 Ene=      -0.4647
 Spin= Alpha
 Occup=    2.000000
1 0.0
2 0.0
3 0.0
4 0.0
5 0.0
6 0.91420367148954
7 0.0
8 0.0
9 0.078400803604660
10 0.0
11 0.0
12 0.0
13 0.0
14 0.014611879629518
15 -0.010163267763700
16 0.0
17 0.0
18 0.0
19 0.0
20 0.031344282989123
21 0.0
22 0.0
23 0.0
24 0.0
25 0.029701979162904
26 0.0
27 0.0
28 0.0
29 0.0
30 0.0
31 -0.009536612146369
32 0.0
33 0.0
34 0.004700341872662
35 0.0
36 0.0
37 0.0
38 0.0
39 0.000093080268447
40 0.000461371856212
41 -0.013940404178812
42 0.016848254209512
43 -0.000594940615786
44 -0.000139214882958
45 -0.000277489377309
46 0.013940404178812
47 -0.016848254209512
48 0.000594940615786
49 0.000139214882958
50 -0.000277489377309
 Sym=      9.1
 Ene=       0.1655
 Spin= Alpha
 Occup=    0.000000
1 0.010116515350529
2 -0.073351115705188
3 -0.22815397458883
4 -0.064154552396395
5 0.089731915975440
6 0.0
7 -0.065915165204143
8 0.000308370339960
9 0.0
10 -0.003299433030589
11 -0.000341750234744
12 0.003641183265333
13 0.000806390376103
14 0.0
15 0.0
16 0.029385044500441
17 0.28397677483855
18 -0.012073113922907
19 0.000976039156391
20 0.0
21 0.020413727463605
22 0.11771403480849
23 0.000568422841942
24 0.004113310944529
25 0.0
26 0.046068932293881
27 -0.16560051918536
28 -0.86731710603218
29 0.19474878591322
30 0.12453181293967
31 0.0
32 0.15009323278483
33 0.11118359004454
34 0.0
35 -0.000299176890167
36 0.005762293718620
37 -0.005463116828453
38 -0.009350665141066
39 0.0
40 0.0
41 0.10328258787937
42 0.72088109473894
43 0.011479032875360
44 0.008047298580281
45 -0.016800426383274
46 0.10328258787937
47 0.72088109473894
48 0.011479032875360
49 0.008047298580281
50 0.016800426383274
 Sym=     10.1
 Ene=       0.2324
 Spin= Alpha
 Occup=    0.000000
1 0.044163515401100
2 -0.12171039452185
3 -0.80186327040562
4 -0.28902574740684
5 -0.034966029224107
6 0.0
7 -0.27669409231912
8 -0.073278279885267
9 0.0
10 -0.015076657572718
11 0.004098474241823
12 0.010978183330894
13 -0.003354480357556
14 0.0
15 0.0
16 0.088939749195768
17 1.32588705402619
18 -0.035133799296605
19 -0.009403933740005
20 0.0
21 0.076849395346621
22 0.039080413359713
23 -0.001012468306608
24 0.007483313839936
25 0.0
26 -0.017914199947135
27 0.004470703782028
28 0.27722751973527
29 -0.078789169119237
30 -0.12544135141681
31 0.0
32 -0.040563509627737
33 -0.025700970751598
34 0.0
35 -0.001137059518294
36 0.002060567113214
37 -0.000923507594920
38 0.004137140575478
39 0.0
40 0.0
41 -0.026762753390665
42 -0.24491543126877
43 -0.001947842355922
44 -0.006483311225376
45 -0.001408154975569
46 -0.026762753390665
47 -0.24491543126877
48 -0.001947842355922
49 -0.006483311225376
50 0.001408154975569
 Sym=      3.2
 Ene=       0.2422
 Spin= Alpha
 Occup=    0.000000
1 0.0
2 0.0
3 0.0
4 0.0
5 0.0
6 -0.025476342360894
7 0.0
8 0.0
9 0.006327865833806
10 0.0
11 0.0
12 0.0
13 0.0
14 -0.000423972344409
15 -0.001160912208273
16 0.0
17 0.0
18 0.0
19 0.0
20 -0.002391087573017
21 0.0
22 0.0
23 0.0
24 0.0
25 -0.000370372948149
26 0.0
27 0.0
28 0.0
29 0.0
30 0.0
31 -0.41064333508972
32 0.0
33 0.0
34 -0.47698061505667
35 0.0
36 0.0
37 0.0
38 0.0
39 0.016021922937241
40 0.012212758481782
41 0.053716823094015
42 1.42537901962019
43 0.012957028522215
44 0.010234967963947
45 -0.019901475209128
46 -0.053716823094015
47 -1.42537901962019
48 -0.012957028522215
49 -0.010234967963947
50 -0.019901475209128
 Sym=     11.1
 Ene=       0.3726
 Spin= Alpha
 Occup=    0.000000
1 0.016108232790316
2 -0.12650642953385
3 -0.45041596693438
4 0.14215312608022
5 0.37760845120122
6 0.0
7 0.17509091445434
8 0.43889563688490
9 0.0
10 0.011443639347198
11 -0.017354647644618
12 0.005911008297421
13 0.005953548787331
14 0.0
15 0.0
16 0.001201976739767
17 -1.04106805420659
18 0.012343433557823
19 -0.002251734577428
20 0.0
21 0.098621034173472
22 1.93109401699615
23 -0.000345579072429
24 0.040948311406725
25 0.0
26 -0.016376054886193
27 -0.11183449973244
28 0.16170982281542
29 -0.063142296842130
30 -0.29492696816528
31 0.0
32 -0.060687094900088
33 -0.19137278481806
34 0.0
35 -0.004888188844697
36 0.012172403907667
37 -0.007284215062970
38 0.005196215681394
39 0.0
40 0.0
41 -0.055088419982707
42 -0.29295134527701
43 -0.001046880697685
44 0.001471534056193
45 0.001607007111164
46 -0.055088419982707
47 -0.29295134527701
48 -0.001046880697685
49 0.001471534056193
50 -0.001607007111164
 Sym=      4.2
 Ene=       0.7714
 Spin= Alpha
 Occup=    0.000000
1 0.0
2 0.0
3 0.0
4 0.0
5 0.0
6 -0.075815457828628
7 0.0
8 0.0
9 0.056119936777787
10 0.0
11 0.0
12 0.0
13 0.0
14 -0.000559789253094
15 -0.000665442072868
16 0.0
17 0.0
18 0.0
19 0.0
20 -0.011212469539030
21 0.0
22 0.0
23 0.0
24 0.0
25 0.043920556887958
26 0.0
27 0.0
28 0.0
29 0.0
30 0.0
31 0.37080155407092
32 0.0
33 0.0
34 0.32773221109225
35 0.0
36 0.0
37 0.0
38 0.0
39 0.086935362628665
40 0.070578584854088
41 -1.61661528195653
42 1.47239046051954
43 0.11746873492988
44 0.094162329196546
45 -0.072735506813711
46 1.61661528195653
47 -1.47239046051954
48 -0.11746873492988
49 -0.094162329196546
50 -0.072735506813711
 Sym=     12.1
 Ene=       0.8165
 Spin= Alpha
 Occup=    0.000000
1 -0.001073550837330
2 -0.017790655697553
3 -0.060343904540036
4 -0.16755804198578
5 -0.28969885979377
6 0.0
7 -0.20617706664892
8 -0.21113554513300
9 0.0
10 0.086191067355641
11 -0.092533461639425
12 0.006342394283784
13 0.032220369686367
14 0.0
15 0.0
16 1.49116774697523
17 -1.41153278903860
18 0.14961284177741
19 -0.041855178448375
20 0.0
21 -1.63090373362760
22 1.66229546522410
23 -0.070469945132460
24 0.16768538808558
25 0.0
26 0.032443680543067
27 0.20353547717327
28 -0.21588803273623
29 -0.045905384727384
30 0.075355688465524
31 0.0
32 -0.044006339097043
33 -0.27725704760467
34 0.0
35 0.013571714513050
36 0.001909825417963
37 -0.015481539931013
38 -0.013062328156318
39 0.0
40 0.0
41 -0.37399297834239
42 0.24499048910004
43 0.006350521913484
44 0.050642018224480
45 -0.034565174706011
46 -0.37399297834239
47 0.24499048910004
48 0.006350521913484
49 0.050642018224480
50 0.034565174706011
 Sym=     13.1
 Ene=       0.8535
 Spin= Alpha
 Occup=    0.000000
1 0.008494477015535
2 0.073252061433972
3 0.014750988846451
4 0.049478597988550
5 0.024797594429508
6 0.0
7 0.028874318704544
8 0.026436152983323
9 0.0
10 -0.022533425351777
11 0.021852498215149
12 0.000680927136628
13 -0.008939256870669
14 0.0
15 0.0
16 -0.37665633920812
17 0.44716120241213
18 -0.048822745421135
19 0.015062419521018
20 0.0
21 0.36255014824092
22 -0.62709926595681
23 0.001736595992536
24 -0.031284235501413
25 0.0
26 0.066374086783739
27 0.52842366882944
28 -0.59027448435730
29 -0.36268322279900
30 -0.16947406672407
31 0.0
32 0.18219048265337
33 0.072627096765904
34 0.0
35 0.036997532649549
36 0.055075975513252
37 -0.092073508162801
38 -0.052531350054975
39 0.0
40 0.0
41 -1.34315459094596
42 1.26062634465943
43 0.033201213032362
44 0.028651954530237
45 -0.29246738724415
46 -1.34315459094596
47 1.26062634465943
48 0.033201213032362
49 0.028651954530237
50 0.29246738724415
 Sym=     14.1
 Ene=       0.8820
 Spin= Alpha
 Occup=    0.000000
1 0.054603352095629
2 0.43302395261130
3 -0.61152622073250
4 0.41607857216090
5 -0.22659473610062
6 0.0
7 -0.18393152940482
8 0.19124275479386
9 0.0
10 -0.038137501704215
11 -0.055248467695420
12 0.093385969399634
13 -0.050844965623368
14 0.0
15 0.0
16 -1.39381802439089
17 1.19511376826319
18 -0.23478286889729