[Molden Format]
[Atoms] (AU)
O    1    8         0.000000000000       0.000000000000      -0.124297814551
H    2    1         0.000000000000      -1.434419280484       0.986348258811
H    3    1         0.000000000000       1.434419280484       0.986348258811
[GTO]
  1 0
 s    8  1.00
    11720.0000000000         0.0007100000
     1759.0000000000         0.0054700000
      400.8000000000         0.0278370000
      113.7000000000         0.1048000000
       37.0300000000         0.2830620000
       13.2700000000         0.4487190000
        5.0250000000         0.2709520000
        1.0130000000         0.0154580000
 s    8  1.00
    11720.0000000000        -0.0001600000
     1759.0000000000        -0.0012630000
      400.8000000000        -0.0062670000
      113.7000000000        -0.0257160000
       37.0300000000        -0.0709240000
       13.2700000000        -0.1654110000
        5.0250000000        -0.1169550000
        1.0130000000         0.5573680000
 s    1  1.00
        0.3023000000         1.0000000000
 p    3  1.00
       17.7000000000         0.0430180000
        3.8540000000         0.2289130000
        1.0460000000         0.5087280000
 p    1  1.00
        0.2753000000         1.0000000000
 d    1  1.00
        1.1850000000         1.0000000000

  2 0
 s    3  1.00
       13.0100000000         0.0196850000
        1.9620000000         0.1379770000
        0.4446000000         0.4781480000
 s    1  1.00
        0.1220000000         1.0000000000
 p    1  1.00
        0.7270000000         1.0000000000

  3 0
 s    3  1.00
       13.0100000000         0.0196850000
        1.9620000000         0.1379770000
        0.4446000000         0.4781480000
 s    1  1.00
        0.1220000000         1.0000000000
 p    1  1.00
        0.7270000000         1.0000000000

[5D]
[9G]

[MO]
 Sym= A1
 Ene=       -20.5509245163
 Spin= Alpha
 Occup=  2.0000
  1       1.000893880655
  2       0.001158765347
  3      -0.002682394856
  4       0.000000000000
  5       0.000000000000
  6       0.001754711313
  7       0.000000000000
  8       0.000000000000
  9      -0.000492491689
 10       0.000009818615
 11       0.000000000000
 12       0.000000000000
 13      -0.000132404453
 14       0.000000000000
 15      -0.000226305526
 16       0.000421940717
 17       0.000000000000
 18      -0.000563157646
 19       0.000476390242
 20      -0.000226305526
 21       0.000421940717
 22       0.000000000000
 23       0.000563157646
 24       0.000476390242
 Sym= A1
 Ene=        -1.3353108408
 Spin= Alpha
 Occup=  2.0000
  1       0.008108153208
  2      -0.443195965066
  3      -0.377653247855
  4       0.000000000000
  5       0.000000000000
  6      -0.078333699784
  7       0.000000000000
  8       0.000000000000
  9       0.012663907642
 10      -0.001240055733
 11       0.000000000000
 12       0.000000000000
 13       0.002987001285
 14       0.000000000000
 15      -0.192461256377
 16      -0.010157463516
 17       0.000000000000
 18      -0.037145416031
 19       0.020409034529
 20      -0.192461256377
 21      -0.010157463516
 22       0.000000000000
 23       0.037145416031
 24       0.020409034529
 Sym= B2
 Ene=        -0.6978027738
 Spin= Alpha
 Occup=  2.0000
  1       0.000000000000
  2       0.000000000000
  3       0.000000000000
  4       0.000000000000
  5       0.489616479099
  6       0.000000000000
  7       0.000000000000
  8       0.222739593926
  9       0.000000000000
 10       0.000000000000
 11       0.000000000000
 12       0.026719395644
 13       0.000000000000
 14       0.000000000000
 15      -0.327409105504
 16      -0.090284615465
 17       0.000000000000
 18      -0.023329330771
 19       0.032604495743
 20       0.327409105504
 21       0.090284615465
 22       0.000000000000
 23      -0.023329330771
 24      -0.032604495743
 Sym= A1
 Ene=        -0.5660866901
 Spin= Alpha
 Occup=  2.0000
  1       0.002169279030
  2      -0.150186216824
  3      -0.348902271516
  4       0.000000000000
  5       0.000000000000
  6       0.545206348112
  7       0.000000000000
  8       0.000000000000
  9       0.365624656831
 10       0.017837893695
 11       0.000000000000
 12       0.000000000000
 13      -0.004590855498
 14       0.000000000000
 15       0.206428083865
 16       0.040893063304
 17       0.000000000000
 18       0.031725579880
 19       0.007429259683
 20       0.206428083865
 21       0.040893063304
 22       0.000000000000
 23      -0.031725579880
 24       0.007429259683
 Sym= B1
 Ene=        -0.4929479985
 Spin= Alpha
 Occup=  2.0000
  1       0.000000000000
  2       0.000000000000
  3       0.000000000000
  4       0.631262698865
  5       0.000000000000
  6       0.000000000000
  7       0.495800996840
  8       0.000000000000
  9       0.000000000000
 10       0.000000000000
 11       0.018159596553
 12       0.000000000000
 13       0.000000000000
 14       0.000000000000
 15       0.000000000000
 16       0.000000000000
 17       0.030944810002
 18       0.000000000000
 19       0.000000000000
 20       0.000000000000
 21       0.000000000000
 22       0.030944810002
 23       0.000000000000
 24       0.000000000000
 Sym= A1
 Ene=         0.1851074691
 Spin= Alpha
 Occup=  0.0000
  1       0.052021856111
  2      -0.072682443851
  3      -0.999919261550
  4       0.000000000000
  5       0.000000000000
  6      -0.191502105978
  7       0.000000000000
  8       0.000000000000
  9      -0.338067163475
 10      -0.007522137643
 11       0.000000000000
 12       0.000000000000
 13       0.009829208280
 14       0.000000000000
 15       0.059460533646
 16       0.828117502413
 17       0.000000000000
 18       0.017287107146
 19      -0.016183224033
 20       0.059460533646
 21       0.828117502413
 22       0.000000000000
 23      -0.017287107146
 24      -0.016183224033
 Sym= B2
 Ene=         0.2558462543
 Spin= Alpha
 Occup=  0.0000
  1       0.000000000000
  2       0.000000000000
  3       0.000000000000
  4       0.000000000000
  5       0.283973233479
  6       0.000000000000
  7       0.000000000000
  8       0.670943192903
  9       0.000000000000
 10       0.000000000000
 11       0.000000000000
 12       0.021051939323
 13       0.000000000000
 14       0.000000000000
 15       0.026591926214
 16       1.439283084778
 17       0.000000000000
 18       0.020636847280
 19      -0.016920475788
 20      -0.026591926214
 21      -1.439283084778
 22       0.000000000000
 23       0.020636847280
 24       0.016920475788
 Sym= B2
 Ene=         0.7873365374
 Spin= Alpha
 Occup=  0.0000
  1       0.000000000000
  2       0.000000000000
  3       0.000000000000
  4       0.000000000000
  5       0.268779841037
  6       0.000000000000
  7       0.000000000000
  8       0.456146616992
  9       0.000000000000
 10       0.000000000000
 11       0.000000000000
 12      -0.111504533289
 13       0.000000000000
 14       0.000000000000
 15       0.943957396788
 16      -0.690430401580
 17       0.000000000000
 18      -0.073365023691
 19       0.152069975501
 20      -0.943957396788
 21       0.690430401580
 22       0.000000000000
 23      -0.073365023691
 24      -0.152069975501
 Sym= A1
 Ene=         0.8518256836
 Spin= Alpha
 Occup=  0.0000
  1       0.065744320374
  2       0.256424846787
  3      -0.319756211363
  4       0.000000000000
  5       0.000000000000
  6       0.328999528940
  7       0.000000000000
  8       0.000000000000
  9      -0.007426007091
 10      -0.000880183642
 11       0.000000000000
 12       0.000000000000
 13       0.106630357336
 14       0.000000000000
 15      -0.790038306626
 16       0.549535268205
 17       0.000000000000
 18       0.293808049457
 19      -0.058917706036
 20      -0.790038306626
 21       0.549535268205
 22       0.000000000000
 23      -0.293808049457
 24      -0.058917706036
 Sym= A1
 Ene=         1.1638555377
 Spin= Alpha
 Occup=  0.0000
  1       0.003285510035
  2       0.114871367075
  3       0.741341455106
  4       0.000000000000
  5       0.000000000000
  6      -0.755383750324
  7       0.000000000000
  8       0.000000000000
  9       1.275057405117
 10       0.013025381934
 11       0.000000000000
 12       0.000000000000
 13       0.006820211554
 14       0.000000000000
 15      -0.541913418048
 16      -0.112935731139
 17       0.000000000000
 18      -0.083591632248
 19       0.252348259944
 20      -0.541913418048
 21      -0.112935731139
 22       0.000000000000
 23       0.083591632248
 24       0.252348259944
 Sym= B1
 Ene=         1.2004243985
 Spin= Alpha
 Occup=  0.0000
  1       0.000000000000
  2       0.000000000000
  3       0.000000000000
  4       0.967847309983
  5       0.000000000000
  6       0.000000000000
  7      -1.022972073078
  8       0.000000000000
  9       0.000000000000
 10       0.000000000000
 11       0.003341830402
 12       0.000000000000
 13       0.000000000000
 14       0.000000000000
 15       0.000000000000
 16       0.000000000000
 17      -0.010855837009
 18       0.000000000000
 19       0.000000000000
 20       0.000000000000
 21       0.000000000000
 22      -0.010855837009
 23       0.000000000000
 24       0.000000000000
 Sym= B2
 Ene=         1.2535734675
 Spin= Alpha
 Occup=  0.0000
  1       0.000000000000
  2       0.000000000000
  3       0.000000000000
  4       0.000000000000
  5       0.735245057450
  6       0.000000000000
  7       0.000000000000
  8      -1.761313343773
  9       0.000000000000
 10       0.000000000000
 11       0.000000000000
 12      -0.043702592653
 13       0.000000000000
 14       0.000000000000
 15      -0.377890297426
 16      -0.821075414846
 17       0.000000000000
 18      -0.303145841328
 19       0.185313258694
 20       0.377890297426
 21       0.821075414846
 22       0.000000000000
 23      -0.303145841328
 24      -0.185313258694
 Sym= A1
 Ene=         1.4452906241
 Spin= Alpha
 Occup=  0.0000
  1       0.202427271236
  2       0.530124134215
  3      -0.504953451830
  4       0.000000000000
  5       0.000000000000
  6      -0.135110646212
  7       0.000000000000
  8       0.000000000000
  9       0.741067899163
 10      -0.117844486497
 11       0.000000000000
 12       0.000000000000
 13      -0.005572053571
 14       0.000000000000
 15      -0.333367523195
 16       0.208577090322
 17       0.000000000000
 18      -0.331074675342
 19      -0.543811300335
 20      -0.333367523195
 21       0.208577090322
 22       0.000000000000
 23       0.331074675342
 24      -0.543811300335
 Sym= A2
 Ene=         1.4760108696
 Spin= Alpha
 Occup=  0.0000
  1       0.000000000000
  2       0.000000000000
  3       0.000000000000
  4       0.000000000000
  5       0.000000000000
  6       0.000000000000
  7       0.000000000000
  8       0.000000000000
  9       0.000000000000
 10       0.000000000000
 11       0.000000000000
 12       0.000000000000
 13       0.000000000000
 14       0.131670647714
 15       0.000000000000
 16       0.000000000000
 17      -0.685368861000
 18       0.000000000000
 19       0.000000000000
 20       0.000000000000
 21       0.000000000000
 22       0.685368861000
 23       0.000000000000
 24       0.000000000000
 Sym= B1
 Ene=         1.6746608542
 Spin= Alpha
 Occup=  0.0000
  1       0.000000000000
  2       0.000000000000
  3       0.000000000000
  4       0.015037692871
  5       0.000000000000
  6       0.000000000000
  7       0.635309305753
  8       0.000000000000
  9       0.000000000000
 10       0.000000000000
 11      -0.161017334135
 12       0.000000000000
 13       0.000000000000
 14       0.000000000000
 15       0.000000000000
 16       0.000000000000
 17      -0.766519603467
 18       0.000000000000
 19       0.000000000000
 20       0.000000000000
 21       0.000000000000
 22      -0.766519603467
 23       0.000000000000
 24       0.000000000000
 Sym= A1
 Ene=         1.8681105254
 Spin= Alpha
 Occup=  0.0000
  1       0.725583712322
  2       1.595801212506
  3      -3.027385478400
  4       0.000000000000
  5       0.000000000000
  6      -0.104927287781
  7       0.000000000000
  8       0.000000000000
  9      -0.967851055405
 10       0.114384109588
 11       0.000000000000
 12       0.000000000000
 13      -0.108268119696
 14       0.000000000000
 15       0.824546714636
 16       0.387067179841
 17       0.000000000000
 18       0.372570357595
 19       0.023528844283
 20       0.824546714636
 21       0.387067179841
 22       0.000000000000
 23      -0.372570357595
 24       0.023528844283
 Sym= B2
 Ene=         1.9325793510
 Spin= Alpha
 Occup=  0.0000
  1       0.000000000000
  2       0.000000000000
  3       0.000000000000
  4       0.000000000000
  5       0.012306521793
  6       0.000000000000
  7       0.000000000000
  8      -0.901036134944
  9       0.000000000000
 10       0.000000000000
 11       0.000000000000
 12       0.029242272121
 13       0.000000000000
 14       0.000000000000
 15      -0.387129481643
 16      -0.091593451866
 17       0.000000000000
 18       0.469384719303
 19       0.693266748391
 20       0.387129481643
 21       0.091593451866
 22       0.000000000000
 23       0.469384719303
 24      -0.693266748391
 Sym= B2
 Ene=         2.4465295368
 Spin= Alpha
 Occup=  0.0000
  1       0.000000000000
  2       0.000000000000
  3       0.000000000000
  4       0.000000000000
  5       0.835932229923
  6       0.000000000000
  7       0.000000000000
  8       0.152416513480
  9       0.000000000000
 10       0.000000000000
 11       0.000000000000
 12      -0.137365781500
 13       0.000000000000
 14       0.000000000000
 15       0.290996718396
 16       0.330301571948
 17       0.000000000000
 18       0.723056330088
 19      -0.553624198948
 20      -0.290996718396
 21      -0.330301571948
 22       0.000000000000
 23       0.723056330088
 24       0.553624198948
 Sym= A1
 Ene=         2.4838167704
 Spin= Alpha
 Occup=  0.0000
  1       0.272401300130
  2       0.717920830154
  3       0.798932993037
  4       0.000000000000
  5       0.000000000000
  6       0.667462848644
  7       0.000000000000
  8       0.000000000000
  9       0.182183898721
 10      -0.053046599301
 11       0.000000000000
 12       0.000000000000
 13       0.215879123321
 14       0.000000000000
 15      -0.476852344964
 16      -0.160139040029
 17       0.000000000000
 18      -0.744568507254
 19       0.536439440217
 20      -0.476852344964
 21      -0.160139040029
 22       0.000000000000
 23       0.744568507254
 24       0.536439440217
 Sym= B1
 Ene=         3.2839580083
 Spin= Alpha
 Occup=  0.0000
  1       0.000000000000
  2       0.000000000000
  3       0.000000000000
  4       0.012728830920
  5       0.000000000000
  6       0.000000000000
  7      -0.309834680794
  8       0.000000000000
  9       0.000000000000
 10       0.000000000000
 11      -1.042021324853
 12       0.000000000000
 13       0.000000000000
 14       0.000000000000
 15       0.000000000000
 16       0.000000000000
 17       0.396396183491
 18       0.000000000000
 19       0.000000000000
 20       0.000000000000
 21       0.000000000000
 22       0.396396183491
 23       0.000000000000
 24       0.000000000000
 Sym= A2
 Ene=         3.3366693968
 Spin= Alpha
 Occup=  0.0000
  1       0.000000000000
  2       0.000000000000
  3       0.000000000000
  4       0.000000000000
  5       0.000000000000
  6       0.000000000000
  7       0.000000000000
  8       0.000000000000
  9       0.000000000000
 10       0.000000000000
 11       0.000000000000
 12       0.000000000000
 13       0.000000000000
 14       1.065217554572
 15       0.000000000000
 16       0.000000000000
 17       0.369767579049
 18       0.000000000000
 19       0.000000000000
 20       0.000000000000
 21       0.000000000000
 22      -0.369767579049
 23       0.000000000000
 24       0.000000000000
 Sym= A1
 Ene=         3.5076342760
 Spin= Alpha
 Occup=  0.0000
  1       0.084063551773
  2       0.154043042424
  3      -0.553855221164
  4       0.000000000000
  5       0.000000000000
  6      -0.017455903748
  7       0.000000000000
  8       0.000000000000
  9      -0.534754362740
 10      -1.083014540774
 11       0.000000000000
 12       0.000000000000
 13      -0.176353939525
 14       0.000000000000
 15       0.303577718124
 16       0.037554566295
 17       0.000000000000
 18       0.351311989714
 19       0.313965409777
 20       0.303577718124
 21       0.037554566295
 22       0.000000000000
 23      -0.351311989714
 24       0.313965409777
 Sym= A1
 Ene=         3.8634212441
 Spin= Alpha
 Occup=  0.0000
  1       0.146870939246
  2       0.184218162030
  3      -2.260624737339
  4       0.000000000000
  5       0.000000000000
  6      -0.400268080168
  7       0.000000000000
  8       0.000000000000
  9      -0.920000803898
 10      -0.136364584351
 11       0.000000000000
 12       0.000000000000
 13       1.158986655470
 14       0.000000000000
 15       1.229840686078
 16       0.191684073599
 17       0.000000000000
 18       0.619852326837
 19      -0.491365881117
 20       1.229840686078
 21       0.191684073599
 22       0.000000000000
 23      -0.619852326837
 24      -0.491365881117
 Sym= B2
 Ene=         4.1447597529
 Spin= Alpha
 Occup=  0.0000
  1       0.000000000000
  2       0.000000000000
  3       0.000000000000
  4       0.000000000000
  5       0.463253671300
  6       0.000000000000
  7       0.000000000000
  8       1.141078319849
  9       0.000000000000
 10       0.000000000000
 11       0.000000000000
 12       1.324259485421
 13       0.000000000000
 14       0.000000000000
 15       1.078033210842
 16       0.287823418692
 17       0.000000000000
 18       0.603943615702
 19      -0.492781688337
 20      -1.078033210842
 21      -0.287823418692
 22       0.000000000000
 23       0.603943615702
 24       0.492781688337
