 &FCI NORB= 30,NELEC= 14,MS2= 0,
  ORBSYM=1,1,1,1,1,1,1,1,1,1,1,1,1,1,1,1,2,2,2,2,2,2,3,3,3,3,3,3,4,4,

  ISYM=1,
 /
  0.2283013084866142E+01   1   1   1   1
  0.8145355520443581E-10   2   1   1   1
  0.1839196592840627E+01   2   1   2   1
  0.2283778973685624E+01   2   2   1   1
 -0.8142040156238622E-10   2   2   2   1
  0.2284545366332734E+01   2   2   2   2
 -0.1927176605015219E+00   3   1   1   1
 -0.4441935080873525E-11   3   1   2   1
 -0.1928428290519698E+00   3   1   2   2
  0.3303192250846561E-01   3   1   3   1
 -0.4610513379463396E-11   3   2   1   1
 -0.2004472283817964E+00   3   2   2   1
  0.1314328488759802E-10   3   2   2   2
 -0.4712159482056499E-14   3   2   3   1
  0.3280471044568719E-01   3   2   3   2
  0.7925606926026781E+00   3   3   1   1
  0.2472780552369158E-14   3   3   2   1
  0.7925316406352788E+00   3   3   2   2
  0.3353161490750822E-02   3   3   3   1
 -0.7482903185973555E-13   3   3   3   2
  0.7639570848123135E+00   3   3   3   3
 -0.1231722178255296E-10   4   1   1   1
 -0.1833568708987719E+00   4   1   2   1
  0.3917898912571694E-11   4   1   2   2
  0.1146602127480301E-11   4   1   3   1
  0.2600245606951761E-01   4   1   3   2
 -0.4167698494260061E-12   4   1   3   3
  0.2987585574575624E-01   4   1   4   1
 -0.1895386859797783E+00   4   2   1   1
  0.4055882200900481E-11   4   2   2   1
 -0.1896465174987216E+00   4   2   2   2
  0.2579050095504701E-01   4   2   3   1
 -0.1146639207194600E-11   4   2   3   2
 -0.1871870104566539E-01   4   2   3   3
  0.5884940972034070E-14   4   2   4   1
  0.3006866139576448E-01   4   2   4   2
  0.8422458070605002E-11   4   3   1   1
  0.1904569019580414E+00   4   3   2   1
 -0.8443858522341773E-11   4   3   2   2
 -0.1887127606958749E-12   4   3   3   1
 -0.8481851204304313E-02   4   3   3   2
 -0.1498264403168581E-13   4   3   3   3
 -0.4185708452202168E-02   4   3   4   1
  0.9384073379470337E-13   4   3   4   2
  0.6788916336464336E-01   4   3   4   3
  0.6610948151113201E+00   4   4   1   1
  0.3714067356615225E-13   4   4   2   1
  0.6611436808718797E+00   4   4   2   2
 -0.1226461569293801E-01   4   4   3   1
  0.2695604156555120E-12   4   4   3   2
  0.5106577346767883E+00   4   4   3   3
 -0.8666938694501525E-13   4   4   4   1
 -0.3979565564673254E-02   4   4   4   2
  0.1498801083243961E-13   4   4   4   3
  0.5291557166632321E+00   4   4   4   4
  0.7308007038940956E-01   5   1   1   1
  0.1292882923455336E-11   5   1   2   1
  0.7310734042207348E-01   5   1   2   2
 -0.3600513957099678E-02   5   1   3   1
 -0.9395696026759381E-14   5   1   3   2
  0.2723162999960390E-01   5   1   3   3
 -0.6935348020702115E-12   5   1   4   1
 -0.1588164302103328E-01   5   1   4   2
 -0.4317921888097320E-13   5   1   4   3
 -0.5724474332145273E-02   5   1   4   4
  0.1760041450341731E-01   5   1   5   1
  0.9803411913907132E-12   5   2   1   1
  0.5900974383871739E-01   5   2   2   1
 -0.4245960172031291E-11   5   2   2   2
 -0.9429848395192675E-14   5   2   3   1
 -0.4097851785576792E-02   5   2   3   2
 -0.6049014099947930E-12   5   2   3   3
 -0.1548737523546985E-01   5   2   4   1
  0.6955661632605803E-12   5   2   4   2
 -0.1845366117617491E-02   5   2   4   3
  0.1239760247587207E-12   5   2   4   4
 -0.2307821902330920E-13   5   2   5   1
  0.1668709904787944E-01   5   2   5   2
  0.8388226883362453E-01   5   3   1   1
  0.7455312951189230E-14   5   3   2   1
  0.8383901349881798E-01   5   3   2   2
  0.8175185572179281E-02   5   3   3   1
 -0.1816363899564966E-12   5   3   3   2
  0.1346822081756975E+00   5   3   3   3
 -0.1506004522477955E-12   5   3   4   1
 -0.6723042763269365E-02   5   3   4   2
 -0.5323866347772821E-14   5   3   4   3
  0.1901313941630262E-02   5   3   4   4
  0.1595786492911038E-01   5   3   5   1
 -0.3541624458980319E-12   5   3   5   2
  0.6998552670411370E-01   5   3   5   3
 -0.1108122605389169E-10   5   4   1   1
 -0.2501538636434363E+00   5   4   2   1
  0.1107180896138917E-10   5   4   2   2
  0.3019945404858504E-12   5   4   3   1
  0.1367367571011830E-01   5   4   3   2
 -0.9832846342705537E-14   5   4   3   3
 -0.3042367647185132E-02   5   4   4   1
  0.6607431615734960E-13   5   4   4   2
 -0.1000817092041231E+00   5   4   4   3
 -0.3154551272976924E-13   5   4   4   4
  0.3520343738738774E-12   5   4   5   1
  0.1595546674917677E-01   5   4   5   2
 -0.8252079575221671E-14   5   4   5   3
  0.1993494323523967E+00   5   4   5   4
  0.6842948179537210E+00   5   5   1   1
 -0.4593756473304789E-13   5   5   2   1
  0.6843183043309895E+00   5   5   2   2
 -0.7910988237814609E-02   5   5   3   1
  0.1775871116826977E-12   5   5   3   2
  0.5541627740119675E+00   5   5   3   3
 -0.9407925827265018E-13   5   5   4   1
 -0.4242484485316910E-02   5   5   4   2
 -0.2155914335943976E-13   5   5   4   3
  0.5325824106121729E+00   5   5   4   4
 -0.1556888339649991E-02   5   5   5   1
  0.3706930595814839E-13   5   5   5   2
  0.2956376945103858E-01   5   5   5   3
  0.3336567133693791E-13   5   5   5   4
  0.5561772946427909E+00   5   5   5   5
 -0.8057797631766389E-11   6   1   1   1
 -0.1226986262339674E+00   6   1   2   1
  0.2806297910607506E-11   6   1   2   2
  0.9307888661214125E-12   6   1   3   1
  0.2096948137222926E-01   6   1   3   2
  0.5778866697236235E-13   6   1   3   3
  0.1601796823569989E-01   6   1   4   1
 -0.3060377472274833E-14   6   1   4   2
 -0.4747963080895943E-02   6   1   4   3
 -0.1721108336145277E-12   6   1   4   4
 -0.7298697236868268E-13   6   1   5   1
 -0.1805108791313226E-02   6   1   5   2
  0.1153016484373159E-12   6   1   5   3
  0.8711991343892379E-02   6   1   5   4
 -0.1155619382738754E-12   6   1   5   5
  0.1349726920853452E-01   6   1   6   1
 -0.1187621712616920E+00   6   2   1   1
  0.2719271730938734E-11   6   2   2   1
 -0.1188408488229546E+00   6   2   2   2
  0.2110423734547480E-01   6   2   3   1
 -0.9321687302263348E-12   6   2   3   2
  0.2611603930266116E-02   6   2   3   3
 -0.3083687818983272E-14   6   2   4   1
  0.1592957243511861E-01   6   2   4   2
  0.1045472302479977E-12   6   2   4   3
 -0.7712342549655468E-02   6   2   4   4
 -0.1560957728657807E-02   6   2   5   1
  0.7603759202140514E-13   6   2   5   2
  0.5216206784965369E-02   6   2   5   3
 -0.1929496059455138E-12   6   2   5   4
 -0.5284396925382257E-02   6   2   5   5
  0.8274630980409370E-15   6   2   6   1
  0.1357361408391898E-01   6   2   6   2
  0.6882822669927291E-11   6   3   1   1
  0.1554016153796240E+00   6   3   2   1
 -0.6879143588250122E-11   6   3   2   2
 -0.9088042818294895E-13   6   3   3   1
 -0.4116039883908157E-02   6   3   3   2
  0.5275500766484600E-14   6   3   3   3
 -0.7021747717225785E-02   6   3   4   1
  0.1550972891783964E-12   6   3   4   2
  0.4416075049214786E-01   6   3   4   3
  0.7253637794579770E-14   6   3   4   4
  0.1273143916680208E-12   6   3   5   1
  0.5771749624827431E-02   6   3   5   2
  0.3713175600328356E-14   6   3   5   3
 -0.4059917116455035E-01   6   3   5   4
 -0.5719383300295533E-14   6   3   5   5
 -0.1727245418389999E-02   6   3   6   1
  0.3794881076046863E-13   6   3   6   2
  0.4418071954666680E-01   6   3   6   3
  0.1253033084253039E+00   6   4   1   1
 -0.9717351706281518E-14   6   4   2   1
  0.1253111766887397E+00   6   4   2   2
 -0.1917428753175940E-02   6   4   3   1
  0.4266986070033951E-13   6   4   3   2
  0.9781126080222365E-01   6   4   3   3
 -0.1221410125817890E-12   6   4   4   1
 -0.5516052718237460E-02   6   4   4   2
 -0.5594483210025203E-14   6   4   4   3
  0.4225993361583566E-01   6   4   4   4
  0.5477825478822728E-02   6   4   5   1
 -0.1220685878766670E-12   6   4   5   2
  0.2368073848616724E-01   6   4   5   3
  0.3838075690598686E-14   6   4   5   4
  0.4054730063373372E-01   6   4   5   5
 -0.1686845108039847E-13   6   4   6   1
 -0.7770231847664538E-03   6   4   6   2
 -0.1082467449009528E-14   6   4   6   3
  0.3564722968181577E-01   6   4   6   4
  0.2278739342453749E-11   6   5   1   1
  0.5121927865791764E-01   6   5   2   1
 -0.2257115931316470E-11   6   5   2   2
  0.3572012477470743E-14   6   5   3   1
  0.1701799469837630E-03   6   5   3   2
  0.9320615026314760E-14   6   5   3   3
 -0.4213305337056235E-03   6   5   4   1
  0.8734386911651848E-14   6   5   4   2
  0.2360294489183751E-01   6   5   4   3
  0.9603212322573107E-14   6   5   4   4
  0.1797357835481295E-13   6   5   5   1
  0.7892116694838329E-03   6   5   5   2
  0.3553147359669495E-14   6   5   5   3
 -0.4806074678547079E-01   6   5   5   4
 -0.6024260951198457E-14   6   5   5   5
  0.1597139816530181E-03   6   5   6   1
 -0.3965577866082981E-14   6   5   6   2
  0.1013952747543612E-01   6   5   6   3
  0.1498801083243961E-14   6   5   6   4
  0.3147067094412528E-01   6   5   6   5
  0.4619522045410003E+00   6   6   1   1
 -0.7453740858039126E-14   6   6   2   1
  0.4619596713661740E+00   6   6   2   2
 -0.1920006431840938E-02   6   6   3   1
  0.4288236432614667E-13   6   6   3   2
  0.4154278480297745E+00   6   6   3   3
 -0.1159879484124993E-12   6   6   4   1
 -0.5224150823288214E-02   6   6   4   2
 -0.4399258735077183E-14   6   6   4   3
  0.3856028279962904E+00   6   6   4   4
  0.5131597263184341E-02   6   6   5   1
 -0.1139158212204450E-12   6   6   5   2
  0.2102254866139837E-01   6   6   5   3
  0.1051242426441945E-14   6   6   5   4
  0.3961936302830861E+00   6   6   5   5
 -0.2203792703880936E-13   6   6   6   1
 -0.9915813043450683E-03   6   6   6   2
 -0.3552713678800501E-14   6   6   6   3
  0.1202630685439438E-01   6   6   6   4
 -0.5506012312750386E-14   6   6   6   5
  0.3607084723104491E+00   6   6   6   6
  0.6327743571399860E-01   7   1   1   1
  0.1516779320279984E-11   7   1   2   1
  0.6332010411301642E-01   7   1   2   2
 -0.1212494860725829E-01   7   1   3   1
  0.4826271760710599E-14   7   1   3   2
 -0.5851760250180045E-02   7   1   3   3
 -0.2984726452538028E-12   7   1   4   1
 -0.6657191446077455E-02   7   1   4   2
  0.7700990452969014E-13   7   1   4   3
  0.5454896725461360E-02   7   1   4   4
 -0.2374159127872437E-02   7   1   5   1
  0.9348479022147638E-14   7   1   5   2
 -0.5851741465266912E-02   7   1   5   3
 -0.1627131047086949E-12   7   1   5   4
  0.2871025324935492E-02   7   1   5   5
 -0.3444414892195269E-12   7   1   6   1
 -0.7844722511585708E-02   7   1   6   2
  0.1582588227133641E-13   7   1   6   3
  0.7326115931087854E-04   7   1   6   4
 -0.9617306950815419E-14   7   1   6   5
 -0.1839505274140507E-03   7   1   6   6
  0.5476289219496475E-02   7   1   7   1
  0.1632663315515240E-11   7   2   1   1
  0.6847980496460421E-01   7   2   2   1
 -0.4432653977816617E-11   7   2   2   2
  0.4862429903162990E-14   7   2   3   1
 -0.1194294386328401E-01   7   2   3   2
  0.1323701415948016E-12   7   2   3   3
 -0.6812848004720284E-02   7   2   4   1
  0.2978625917963995E-12   7   2   4   2
  0.3464719519821425E-02   7   2   4   3
 -0.1205843151025343E-12   7   2   4   4
  0.9428222091933947E-14   7   2   5   1
 -0.2009112011799359E-02   7   2   5   2
  0.1314610855070175E-12   7   2   5   3
 -0.7456351904920123E-02   7   2   5   4
 -0.6554465629103612E-13   7   2   5   5
 -0.7747474141197846E-02   7   2   6   1
  0.3459975361774781E-12   7   2   6   2
  0.6994053721840815E-03   7   2   6   3
 -0.1022619489088328E-14   7   2   6   4
 -0.4281475727578761E-03   7   2   6   5
  0.4672233737054721E-14   7   2   6   6
 -0.4517219931443606E-14   7   2   7   1
  0.5335303478031239E-02   7   2   7   2
 -0.1385571739290440E+00   7   3   1   1
  0.8849092113369025E-14   7   3   2   1
 -0.1385471428567809E+00   7   3   2   2
 -0.7125823969676157E-03   7   3   3   1
  0.1599284940589918E-13   7   3   3   2
 -0.1081513557898096E+00   7   3   3   3
  0.1465195152705601E-12   7   3   4   1
  0.6610792224546439E-02   7   3   4   2
  0.7265021917390868E-14   7   3   4   3
 -0.4778733735292113E-01   7   3   4   4
 -0.9223065060551186E-02   7   3   5   1
  0.2058171341690063E-12   7   3   5   2
 -0.4058025318019678E-01   7   3   5   3
  0.2362693374280411E-14   7   3   5   4
 -0.7050106969656006E-01   7   3   5   5
 -0.1020017403874363E-13   7   3   6   1
 -0.4660017078907050E-03   7   3   6   2
  0.2164934898019055E-14   7   3   6   3
 -0.1275211619378556E-01   7   3   6   4
 -0.1040834085586084E-15   7   3   6   5
 -0.3604907031473031E-01   7   3   6   6
  0.2123793210310646E-02   7   3   7   1
 -0.4798765551594641E-13   7   3   7   2
  0.4908864364117090E-01   7   3   7   3
 -0.2683786801167216E-11   7   4   1   1
 -0.6046683599880319E-01   7   4   2   1
  0.2671008309870765E-11   7   4   2   2
  0.6396120612317535E-13   7   4   3   1
  0.2832067152066893E-02   7   4   3   2
  0.4935179868936768E-14   7   4   3   3
  0.9308835212489631E-04   7   4   4   1
 -0.3194818541663036E-14   7   4   4   2
 -0.2165838275462513E-01   7   4   4   3
 -0.1729573515657501E-13   7   4   4   4
  0.5435409067278130E-13   7   4   5   1
  0.2350277684104729E-02   7   4   5   2
  0.5651295403863443E-14   7   4   5   3
  0.4685815285461278E-01   7   4   5   4
 -0.7975391180803371E-15   7   4   5   5
  0.1791732893154797E-02   7   4   6   1
 -0.3877106968808164E-13   7   4   6   2
 -0.8081683429695896E-02   7   4   6   3
  0.3386180225106727E-14   7   4   6   4
 -0.1611290560053363E-01   7   4   6   5
 -0.2567932845531917E-14   7   4   6   6
 -0.2789175140849309E-13   7   4   7   1
 -0.1237183250189547E-02   7   4   7   2
 -0.3400058012914542E-15   7   4   7   3
  0.1619604307419837E-01   7   4   7   4
 -0.5383567160122649E-01   7   5   1   1
  0.2227570951589437E-13   7   5   2   1
 -0.5381574205526372E-01   7   5   2   2
 -0.3549204174448479E-02   7   5   3   1
  0.7767679728598598E-13   7   5   3   2
 -0.7259617113322238E-01   7   5   3   3
  0.1185915515095060E-12   7   5   4   1
  0.5323651133779011E-02   7   5   4   2
  0.1092962526039187E-13   7   5   4   3
  0.8840822724371601E-02   7   5   4   4
 -0.1005379911340874E-01   7   5   5   1
  0.2224958498692198E-12   7   5   5   2
 -0.4010069782139514E-01   7   5   5   3
 -0.8432057135854265E-14   7   5   5   4
 -0.2671299433139080E-02   7   5   5   5
 -0.5445296991091197E-13   7   5   6   1
 -0.2429860936509896E-02   7   5   6   2
  0.3178013407989511E-14   7   5   6   3
 -0.2080306920687722E-01   7   5   6   4
 -0.9020562075079397E-15   7   5   6   5
 -0.8579340708347451E-03   7   5   6   6
  0.2917361958283023E-02   7   5   7   1
 -0.6511241198992046E-13   7   5   7   2
  0.1870603781784096E-01   7   5   7   3
 -0.8215867222660656E-14   7   5   7   4
  0.2954969553662137E-01   7   5   7   5
 -0.9063293210143141E-12   7   6   1   1
 -0.2073213114298328E-01   7   6   2   1
  0.9296440902935283E-12   7   6   2   2
  0.5117271623805708E-14   7   6   3   1
  0.2260432677265284E-03   7   6   3   2
  0.1039977565869821E-13   7   6   3   3
  0.3799981007912654E-02   7   6   4   1
 -0.8422423999551731E-13   7   6   4   2
  0.9736332073902882E-02   7   6   4   3
  0.9837942092916219E-14   7   6   4   4
 -0.1051325367908140E-12   7   6   5   1
 -0.4798372908963921E-02   7   6   5   2
  0.2379823768605682E-14   7   6   5   3
 -0.3066331157167131E-01   7   6   5   4
  0.2172741153660951E-15   7   6   5   5
 -0.1449427364097226E-03   7   6   6   1
  0.3066991105526995E-14   7   6   6   2
 -0.5624112588925430E-02   7   6   6   3
  0.5013350845572973E-14   7   6   6   4
  0.1439924806630660E-01   7   6   6   5
  0.9470289136226384E-14   7   6   6   6
  0.1343218071492291E-13   7   6   7   1
  0.6235897653803419E-03   7   6   7   2
 -0.3655929725621121E-14   7   6   7   3
 -0.5750429999939052E-02   7   6   7   4
 -0.9662409761190816E-15   7   6   7   5
  0.1860180629241522E-01   7   6   7   6
  0.4880306091229196E+00   7   7   1   1
  0.1745843324508362E-14   7   7   2   1
  0.4880147157457953E+00   7   7   2   2
  0.2403934251325311E-02   7   7   3   1
 -0.5358560817292357E-13   7   7   3   2
  0.4961915615272887E+00   7   7   3   3
 -0.1159393761551719E-12   7   7   4   1
 -0.5245764073322505E-02   7   7   4   2
 -0.5342948306008566E-15   7   7   4   3
  0.3954973436347732E+00   7   7   4   4
  0.8913357140844319E-02   7   7   5   1
 -0.1994827913964770E-12   7   7   5   2
  0.4934480373098378E-01   7   7   5   3
 -0.1391942117123790E-13   7   7   5   4
  0.4081716626694113E+00   7   7   5   5
  0.3613775945154885E-13   7   7   6   1
  0.1628468846954723E-02   7   7   6   2
  0.2442490654175344E-14   7   7   6   3
  0.4823156003921902E-01   7   7   6   4
  0.9920016197373371E-14   7   7   6   5
  0.3337679296368619E+00   7   7   6   6
 -0.2336123904821102E-02   7   7   7   1
  0.5290906601729262E-13   7   7   7   2
 -0.2482400243201355E-01   7   7   7   3
 -0.5967448757360216E-15   7   7   7   4
 -0.2980199671918402E-01   7   7   7   5
  0.1110223024625157E-13   7   7   7   6
  0.4190780832202532E+00   7   7   7   7
 -0.8672920000004845E-01   8   1   1   1
 -0.1710575071482224E-11   8   1   2   1
 -0.8676743277846832E-01   8   1   2   2
  0.6631763681544322E-02   8   1   3   1
  0.9439064113658802E-14   8   1   3   2
 -0.2156909948585561E-01   8   1   3   3
  0.7423594616633167E-12   8   1   4   1
  0.1684110140550696E-01   8   1   4   2
  0.8512504937052690E-14   8   1   4   3
  0.3293756339756411E-02   8   1   4   4
 -0.1609963583033178E-01   8   1   5   1
  0.1479567336704068E-13   8   1   5   2
 -0.1206333968793616E-01   8   1   5   3
 -0.2474370534855108E-12   8   1   5   4
  0.2826524937932138E-03   8   1   5   5
  0.1597368071148964E-12   8   1   6   1
  0.3516431646521084E-02   8   1   6   2
 -0.1220169798532567E-12   8   1   6   3
 -0.4565452019139712E-02   8   1   6   4
 -0.2100750129407913E-13   8   1   6   5
 -0.4529343033477115E-02   8   1   6   6
  0.7778054474198506E-03   8   1   7   1
 -0.7666610402079499E-14   8   1   7   2
  0.7556364246366714E-02   8   1   7   3
 -0.3458691666402558E-13   8   1   7   4
  0.7805046950844019E-02   8   1   7   5
  0.8913789845133024E-13   8   1   7   6
 -0.6860324706534292E-02   8   1   7   7
  0.1523485091739720E-01   8   1   8   1
 -0.1490636948558554E-11   8   2   1   1
 -0.7680067771192120E-01   8   2   2   1
  0.5311431316266262E-11   8   2   2   2
  0.9431041017582409E-14   8   2   3   1
  0.6994458489223762E-02   8   2   3   2
  0.4763270669821268E-12   8   2   3   3
  0.1655944061755735E-01   8   2   4   1
 -0.7366298326524912E-12   8   2   4   2
  0.3187929145171855E-03   8   2   4   3
 -0.7101337204905300E-13   8   2   4   4
  0.1472801915147759E-13   8   2   5   1
 -0.1544723170359101E-01   8   2   5   2
  0.2664447438724404E-12   8   2   5   3
 -0.1117242727542400E-01   8   2   5   4
 -0.8141328323302277E-14   8   2   5   5
  0.3689013946454427E-02   8   2   6   1
 -0.1593222082041379E-12   8   2   6   2
 -0.5489075127094383E-02   8   2   6   3
  0.1009747840896580E-12   8   2   6   4
 -0.9379978487315359E-03   8   2   6   5
  0.1003169444215024E-12   8   2   6   6
 -0.7616303421276172E-14   8   2   7   1
  0.5138468661523843E-03   8   2   7   2
 -0.1676402072714467E-12   8   2   7   3
 -0.1479358080769636E-02   8   2   7   4
 -0.1720251545378471E-12   8   2   7   5
  0.4030268301151862E-02   8   2   7   6
  0.1525375962693754E-12   8   2   7   7
 -0.7882475054621363E-14   8   2   8   1
  0.1477037996313325E-01   8   2   8   2
  0.3333835307661128E-01   8   3   1   1
  0.9858669836168479E-14   8   3   2   1
  0.3335401327159024E-01   8   3   2   2
 -0.3327107923070032E-02   8   3   3   1
  0.7322435843434838E-13   8   3   3   2
  0.9918689599726735E-02   8   3   3   3
  0.2117875102722322E-13   8   3   4   1
  0.9478126794739555E-03   8   3   4   2
  0.3440173493296506E-14   8   3   4   3
  0.2787934132991088E-01   8   3   4   4
 -0.4196002907659648E-02   8   3   5   1
  0.9287470965901878E-13   8   3   5   2
 -0.1069291111770401E-01   8   3   5   3
 -0.2194099936458915E-14   8   3   5   4
  0.2037375552361693E-01   8   3   5   5
 -0.4526240493518685E-13   8   3   6   1
 -0.2044904967432204E-02   8   3   6   2
  0.2168404344971009E-14   8   3   6   3
  0.6855146428176371E-02   8   3   6   4
  0.1838806884535416E-15   8   3   6   5
  0.6214956317318190E-02   8   3   6   6
  0.2069215866065895E-02   8   3   7   1
 -0.4586088453439885E-13   8   3   7   2
  0.3571022604993359E-02   8   3   7   3
 -0.3529294911874814E-14   8   3   7   4
  0.6365273102720387E-02   8   3   7   5
 -0.2595146320061303E-14   8   3   7   6
  0.6675665697934671E-02   8   3   7   7
  0.3209777309068690E-02   8   3   8   1
 -0.7106630822012461E-13   8   3   8   2
  0.8080415265928923E-02   8   3   8   3
  0.6517374282501143E-11   8   4   1   1
  0.1463844260963449E+00   8   4   2   1
 -0.6446057459204670E-11   8   4   2   2
 -0.2010817727604586E-12   8   4   3   1
 -0.9024876203578126E-02   8   4   3   2
  0.1817182472205192E-13   8   4   3   3
 -0.1127179133614266E-02   8   4   4   1
  0.2518167965814833E-13   8   4   4   2
  0.3599028384840036E-01   8   4   4   3
  0.2659981609975937E-13   8   4   4   4
 -0.1438721104057850E-12   8   4   5   1
 -0.6470654074566012E-02   8   4   5   2
  0.3054414360326163E-14   8   4   5   3
 -0.5907391994768239E-01   8   4   5   4
  0.8559992992207555E-14   8   4   5   5
 -0.5519717786889873E-02   8   4   6   1
  0.1213543154854335E-12   8   4   6   2
  0.2551745628230145E-01   8   4   6   3
  0.4100886297209172E-14   8   4   6   4
 -0.4120790604910114E-02   8   4   6   5
  0.6999826066000914E-14   8   4   6   6
  0.1006156963301308E-12   8   4   7   1
  0.4562458513184438E-02   8   4   7   2
 -0.5054984208996416E-14   8   4   7   3
 -0.1293697307774535E-01   8   4   7   4
  0.5639586020400600E-14   8   4   7   5
 -0.7405089780744389E-02   8   4   7   6
  0.8925802805204164E-14   8   4   7   7
  0.9354409608031133E-13   8   4   8   1
  0.4204599370999103E-02   8   4   8   2
  0.4741432940713608E-14   8   4   8   3
  0.4939387075470365E-01   8   4   8   4
 -0.2160529173464624E+00   8   5   1   1
 -0.1066438197515687E-14   8   5   2   1
 -0.2160790036696130E+00   8   5   2   2
  0.7365902215239820E-02   8   5   3   1
 -0.1630293122723003E-12   8   5   3   2
 -0.1155106643604004E+00   8   5   3   3
  0.7779345743974542E-13   8   5   4   1
  0.3537208007339535E-02   8   5   4   2
  0.1741662369880714E-14   8   5   4   3
 -0.1019294504394573E+00   8   5   4   4
  0.1975579504572027E-02   8   5   5   1
 -0.4326010036304062E-13   8   5   5   2
 -0.1385641142991267E-01   8   5   5   3
  0.2957703526540456E-14   8   5   5   4
 -0.1096924832904421E+00   8   5   5   5
  0.1028899188071364E-12   8   5   6   1
  0.4636723381292229E-02   8   5   6   2
  0.5551115123125783E-16   8   5   6   3
 -0.3094460697893794E-01   8   5   6   4
 -0.4227087430086485E-14   8   5   6   5
 -0.3012381538604669E-01   8   5   6   6
 -0.3144956159918874E-02   8   5   7   1
  0.7043150784813434E-13   8   5   7   2
  0.2816947961141271E-01   8   5   7   3
  0.4735795089416683E-14   8   5   7   4
  0.8031753583153802E-02   8   5   7   5
 -0.2966377143920340E-14   8   5   7   6
 -0.5409581095815256E-01   8   5   7   7
 -0.6946407747173006E-03   8   5   8   1
  0.1497933721505973E-13   8   5   8   2
 -0.1255932165035914E-01   8   5   8   3
 -0.1095304402731756E-13   8   5   8   4
  0.6526812972360777E-01   8   5   8   5
  0.2975454281443549E-11   8   6   1   1
  0.6715170450763913E-01   8   6   2   1
 -0.2971356517309783E-11   8   6   2   2
 -0.6993125696574953E-13   8   6   3   1
 -0.3164674019573683E-02   8   6   3   2
  0.3004432640174581E-14   8   6   3   3
  0.1904756559253411E-02   8   6   4   1
 -0.4183513344774292E-13   8   6   4   2
  0.4221530216214055E-01   8   6   4   3
  0.1458121817732305E-13   8   6   4   4
 -0.1150991194714956E-12   8   6   5   1
 -0.5216146206425819E-02   8   6   5   2
  0.2182282132778823E-14   8   6   5   3
 -0.8647617200974575E-01   8   6   5   4
 -0.1601713553456285E-13   8   6   5   5
 -0.2007019884492409E-02   8   6   6   1
  0.4471423231677818E-13   8   6   6   2
  0.1007526753977595E-01   8   6   6   3
 -0.5689893001203927E-14   8   6   6   4
  0.4362741382105303E-01   8   6   6   5
  0.9872311301784009E-14   8   6   6   6
  0.4197597130994879E-13   8   6   7   1
  0.1918959846212912E-02   8   6   7   2
 -0.3105155021998485E-15   8   6   7   3
 -0.2249305036819932E-01   8   6   7   4
  0.1170938346284345E-14   8   6   7   5
  0.3210767838907555E-01   8   6   7   6
  0.4602221381766469E-14   8   6   7   7
  0.8487806811563470E-13   8   6   8   1
  0.3829898029539673E-02   8   6   8   2
  0.8617238866914789E-15   8   6   8   3
 -0.5605755259128591E-02   8   6   8   4
 -0.4527628272299467E-15   8   6   8   5
  0.8542004824315258E-01   8   6   8   6
  0.9301375945685105E-02   8   7   1   1
 -0.2969863277421355E-13   8   7   2   1
  0.9297106142070515E-02   8   7   2   2
  0.6918088285431275E-03   8   7   3   1
 -0.1398328067919730E-13   8   7   3   2
  0.7872262771038538E-02   8   7   3   3
 -0.4099509360450115E-13   8   7   4   1
 -0.1838631415057941E-02   8   7   4   2
 -0.1278374650061365E-13   8   7   4   3
 -0.4157730682535016E-02   8   7   4   4
  0.3008843456559744E-02   8   7   5   1
 -0.6548640752931933E-13   8   7   5   2
  0.8502072539583608E-02   8   7   5   3
  0.1980701843859456E-13   8   7   5   4
  0.2224744145690761E-02   8   7   5   5
  0.1038232000372119E-13   8   7   6   1
  0.4516140636155854E-03   8   7   6   2
 -0.7155734338404329E-14   8   7   6   3
 -0.5939544763889889E-02   8   7   6   4
 -0.6921546669147460E-14   8   7   6   5
  0.1313413850499360E-01   8   7   6   6
 -0.7864341005670962E-03   8   7   7   1
  0.1682394458121794E-13   8   7   7   2
 -0.9258367517694840E-02   8   7   7   3
  0.3956036886965109E-14   8   7   7   4
 -0.1508685296531083E-02   8   7   7   5
  0.2227384943154220E-14   8   7   7   6
 -0.5298261917877560E-02   8   7   7   7
 -0.2508426769990510E-02   8   7   8   1
  0.5474982446573851E-13   8   7   8   2
 -0.3824150660057930E-02   8   7   8   3
 -0.4889968638344122E-14   8   7   8   4
  0.5758436363419318E-02   8   7   8   5
 -0.1305205943324950E-13   8   7   8   6
  0.7595945224648197E-02   8   7   8   7
  0.4965028442239484E+00   8   8   1   1
  0.3609714252766211E-13   8   8   2   1
  0.4965330837213224E+00   8   8   2   2
 -0.7877225950795999E-02   8   8   3   1
  0.1726674359048275E-12   8   8   3   2
  0.3921625705401943E+00   8   8   3   3
 -0.5236783229278785E-13   8   8   4   1
 -0.2392910022293007E-02   8   8   4   2
  0.1305205943324950E-13   8   8   4   3
  0.4135438133473655E+00   8   8   4   4
 -0.3888618962843262E-02   8   8   5   1
  0.8438562348889178E-13   8   8   5   2
 -0.1768408543064079E-03   8   8   5   3
 -0.2506328478091291E-13   8   8   5   4
  0.4214258930960229E+00   8   8   5   5
 -0.1120215031846783E-12   8   8   6   1
 -0.5024572343602651E-02   8   8   6   2
  0.9880984919163893E-14   8   8   6   3
  0.9748239339490539E-02   8   8   6   4
  0.6619704784327496E-14   8   8   6   5
  0.3511953253446473E+00   8   8   6   6
  0.3577376164631954E-02   8   8   7   1
 -0.7926992395823618E-13   8   8   7   2
 -0.3217389291879202E-01   8   8   7   3
 -0.1064426324859369E-13   8   8   7   4
  0.9880050873503472E-02   8   8   7   5
 -0.9714451465470120E-15   8   8   7   6
  0.3267457568845321E+00   8   8   7   7
  0.2074912554281563E-02   8   8   8   1
 -0.4462749614297934E-13   8   8   8   2
  0.1182877886320083E-01   8   8   8   3
  0.1498107193853571E-13   8   8   8   4
 -0.4940066312930769E-01   8   8   8   5
  0.1047079090099601E-13   8   8   8   6
  0.6135416409909611E-02   8   8   8   7
  0.3675838505848199E+00   8   8   8   8
 -0.1750852376238211E-11   9   1   1   1
 -0.3137699376185812E-01   9   1   2   1
  0.1027113125822575E-11   9   1   2   2
  0.5598435397994456E-12   9   1   3   1
  0.1234715824614315E-01   9   1   3   2
  0.6178390860988453E-12   9   1   3   3
 -0.3812432343218169E-02   9   1   4   1
 -0.9308114514079181E-14   9   1   4   2
 -0.4925910181288030E-02   9   1   4   3
 -0.2650912800904182E-12   9   1   4   4
  0.7495926757994723E-12   9   1   5   1
  0.1646544656185205E-01   9   1   5   2
  0.4237466497483688E-12   9   1   5   3
  0.2229757485528690E-01   9   1   5   4
 -0.1384602068416063E-12   9   1   5   5
  0.8906010381537970E-02   9   1   6   1
  0.6810090685815950E-14   9   1   6   2
  0.4914737024110485E-02   9   1   6   3
  0.1083074602226120E-12   9   1   6   4
  0.1027071954494474E-02   9   1   6   5
  0.9597574471276182E-13   9   1   6   6
 -0.3727296249422807E-12   9   1   7   1
 -0.8265255150761465E-02   9   1   7   2
 -0.1992616141532899E-12   9   1   7   3
  0.3625922994178829E-02   9   1   7   4
 -0.2568856585782875E-12   9   1   7   5
 -0.4893603759391085E-02   9   1   7   6
  0.2112992940339620E-12   9   1   7   7
 -0.6239809558807041E-12   9   1   8   1
 -0.1374301260973528E-01   9   1   8   2
 -0.1245549887188280E-12   9   1   8   3
 -0.1066397913022173E-01   9   1   8   4
  0.1312179531698376E-12   9   1   8   5
 -0.6414021420858026E-02   9   1   8   6
  0.7470022864164427E-13   9   1   8   7
 -0.1776212640511310E-12   9   1   8   8
  0.2495776756370343E-01   9   1   9   1
 -0.1584093692002807E-01   9   2   1   1
  0.6832179136675998E-12   9   2   2   1
 -0.1587287911808408E-01   9   2   2   2
  0.1288135418120513E-01   9   2   3   1
 -0.5572617020610515E-12   9   2   3   2
  0.2794286486596989E-01   9   2   3   3
 -0.9417434280317716E-14   9   2   4   1
 -0.4227886485836007E-02   9   2   4   2
  0.1064482703372338E-12   9   2   4   3
 -0.1179377709343963E-01   9   2   4   4
  0.1744615245264586E-01   9   2   5   1
 -0.7520716363042246E-12   9   2   5   2
  0.1915333299660793E-01   9   2   5   3
 -0.4945800713418436E-12   9   2   5   4
 -0.6415470057343192E-02   9   2   5   5
  0.6738533342431907E-14   9   2   6   1
  0.9169676391634164E-02   9   2   6   2
 -0.1088087953071692E-12   9   2   6   3
  0.4904147483648903E-02   9   2   6   4
 -0.2239181062790863E-13   9   2   6   5
  0.4325429106317504E-02   9   2   6   6
 -0.8654873371989454E-02   9   2   7   1
  0.3765854815485081E-12   9   2   7   2
 -0.9059100293755847E-02   9   2   7   3
 -0.7733765884643251E-13   9   2   7   4