[Molden Format]
[Molpro variables]
_NUMVAR=  809.0000000000000    
_AVOGAD= 0.6022136736000000E+24
_BOLTZ= 0.1380658000000000E-22
_CLIGHT=  29979245800.00000    
_EV2006= 0.3674930886769165E-01
_EV= 0.3674932534394180E-01
_ENULL= 0.8854187817000000E-11
_KJOULE= 0.3808798324128737E-03
_KJOULE/MOL= 0.3808798324128737E-03
_CM= 0.4556335267302901E-05
_CM-1= 0.4556335267302901E-05
_DEB2SI= 0.3335641000000000E-29
_AMU2AU=  1822.888390000000    
_KCAL= 0.1593601117815568E-02
_KCAL/MOL= 0.1593601117815568E-02
_KELVIN2006= 0.3166828861084835E-05
_KELVIN= 0.3166814820820034E-05
_JOULE= 0.4359748200000000E-17
_HERTZ2006= 0.1519829850815779E-15
_HERTZ= 0.1519829846011223E-15
_HZ2006= 0.1519829850815779E-15
_HZ= 0.1519829846011223E-15
_JPCAL=  4.184000000000000    
_PLANCK= 0.6626075540000000E-33
_TOA2006= 0.5291772490000000    
_TOA= 0.5291772090000000    
_TOANG2006= 0.5291772490000000    
_TOANG= 0.5291772090000000    
_TORAD= 0.1745329251994330E-01
_TOCM=  219474.6306700000    
_TODEBYE=  2.541580000000000    
_TOEV2006=  27.21139610000000    
_TOE= 0.4803242000000000E-09
_TOEV=  27.21138390000000    
_TOHERTZ2006=  6579683899900000.    
_TOHERTZ=  6579683920700000.    
_TOHZ2006=  6579683899900000.    
_TOHZ=  6579683920700000.    
_TOK2006=  315773.3000000000    
_TOK=  315774.7000000000    
_TOKCAL=  627.5096000000000    
_TOKELVIN2006=  315773.3000000000    
_TOKELVIN=  315774.7000000000    
_TOKJ=  2625.500000000000    
_TOKJOULE=  2625.500000000000    
_TOKG= 0.1660565586000000E-26
_ANG2006=  1.889725988578923    
_ANG=  1.889726131421507    
_ANGSTROM2006=  1.889725988578923    
_ANGSTROM=  1.889726131421507    
_RPAREF=  0.000000000000000    
_RPADISS=  0.000000000000000    
_IGNORE_UNDEF=  2.000000000000000    
_STRICTCHECK=  0.000000000000000    
_SEW_ONEEL=  0.000000000000000    
_CPPDONE=FALSE
_DKROLL_DONE=  0.000000000000000    
_FOCKDONE=TRUE
_GRADONE=FALSE
_HESSDONE=FALSE
_INTDONE=TRUE
_SCFDONE=TRUE
_MODUL_BLOCK=FALSE
_MODUL_CUDA=FALSE
_MODUL_SLATER=FALSE
_MODUL_MRCC=FALSE
_MODUL_NBO6=FALSE
_MODUL_NECI=TRUE
_MODUL_AIMS=TRUE
_MRCC_EXEC=
_FITC_AO_SAVED=FALSE
_FITC_MO_SAVED=FALSE
_SHARED_FS=TRUE
_LSTYP=SEWARD
_INTYP=INTS
_GEOMTYP=ZMAT
_GRADTYP=ALASKA
_DIRECT=FALSE
_DKHO=-1.0000000000000000    
_SYNCM=  0.000000000000000    
_BASIS=CC-PVDZ
_ZORIENT= 1.0000000000000000    
_NELEC=  42.00000000000000    
!SPIN=  0.000000000000000    
_OPTCONV= 0.1902952417134987E-03
_QSDSTEP=  0.000000000000000    
_QSDIRC=  0.000000000000000    
_PROGRAM=RHF-SCF
_CPUSTEP= 0.6999999999999318E-01
_SYSSTEP= 0.2000000000000046E-01
_WALLSTEP= 0.4600000000000000    
!DFSCF=  0.000000000000000    
!SCSGRD=  0.000000000000000    
_BASINP=  610.0000000000000    
_CPUTOT=  65.98999999999999    
_DFTEXFAC= 1.0000000000000000    
_DMX=  0.000000000000000    
_DMY=  0.000000000000000    
_DMZ=  0.000000000000000    
_DMX_SCF=  0.000000000000000    
_DMY_SCF=  0.000000000000000    
_DMZ_SCF=  0.000000000000000    
_EHOMO=-0.3346264618220805    
_ELUMO= 0.1388820900720678    
_ENERGY= -230.7223496044812    
_ENUC=  204.3173479596540    
_EPS1= -11.23699156884527    
_EPS2= -11.23642024648631    
_EPS3= -11.23642023536371    
_EPS4= -11.23519027414296    
_EPS5=-0.5015162001846136    
_EPS6=-0.3346274506803420    
_EPS7=-0.3346264618220805    
_EPS8= 0.1388826014758908    
_GRADENERG= -230.7223496002255    
_GRADEXFAC=  9999.000000000000    
_GRADMETHOD= 1.0000000000000000    
_NMRMETHOD=  0.000000000000000    
_VIRIAL=-0.5023420413632813E-03
!GRID_FREEZE=-1.0000000000000000    
_ITERATIONS=  2.000000000000000    
_LASTNELEC=  42.00000000000000    
_LASTSPIN=  0.000000000000000    
_LASTSYM= 1.0000000000000000    
_MPP_PROG=  0.000000000000000    
_NPROC_MPP= 1.0000000000000000    
_NPROC_MPPX= 1.0000000000000000    
_NPROC_SMP=  20.00000000000000    
_NUMSTEP=  0.000000000000000    
_OPTCONVMX= 0.1825767217127350E-03
_OPTCONVRMS= 0.5493350451373367E-04
_OPTGRAD= 0.5701895481664729E-04
_OPTGRADMX= 0.4083860859266824E-04
_OPTGRADRMS= 0.1900631827221576E-05
_OPTSTEP=  3.000000000000000    
_ORBITAL=  8000.200000000000    
_PI=  3.141592653589793    
_SEIG_MIN= 0.3141363734134418E-03
_SEWPROP=TRUE
_STATUS= 1.0000000000000000    
_SYSTOT=  6.010000000000000    
_VERSION=  2012001.000000000    
_WALLTOT=  73.12000000000000    
_DATE=02-Jun-15
_LASTORB=RHF
_MACHINE=Linux-2.6.32-504.16.2.el6.x86_64/qc005(x86_64) (20 PROC) 64 bit serial version
_OUTPUT=/home/jochen19/PHD/pub_orbkit/benzene/benzene.xml
_PGROUP=D2h
_TIME=15:13:20
_LIBMOL=/cm/shared/apps/molpro/2012.1.4openmp/molpros_2012_1_Linux_x86_64_i8/lib/
!VIBCNT=  0.000000000000000    
!RGHFCNT=  0.000000000000000    
!SURFREC=  0.000000000000000    
!POLYREC=  0.000000000000000    
!DIPREC=  0.000000000000000    
!VSCFREC=  0.000000000000000    
!VCIREC=  0.000000000000000    
!PVCIREC=  0.000000000000000    
!VMP2REC=  0.000000000000000    
!VMCSCFREC=  0.000000000000000    
!VMRCIREC=  0.000000000000000    
!VIBINFO=  0.000000000000000    
!GAREC=  0.000000000000000    
!SCFORB=  80002.00000000000    
!NEWMOL=  0.000000000000000    
!NEWSYM=  0.000000000000000    
_SLFILES=slscratch
_NGSSTO=  9.000000000000000    
_SIN=SIN
_COS=COS
_TAN=TAN
_ACOS=ACOS
_ASIN=ASIN
_ATAN=ATAN
_COSH=COSH
_SINH=SINH
_TANH=TANH
_ABS=ABS
_MOD=MOD
_ERF=ERF
_REFC=REFC
_ERFC=ERFC
_HYPOT=HYPOT
_J0=J0
_J1=J1
_JN=JN
_GAMMA=GAMMA
_LGAMMA=LGAMMA
_Y0=Y0
_Y1=Y1
_YN=YN
_EXP=EXP
_LOG=LOG
_LOG10=LOG10
_SQRT=SQRT
_INT=INT
_NINT=NINT
_MAX=MAX
_MIN=MIN
_COSMO=  0.000000000000000    
_COSMOIT=  0.000000000000000    
_COSMOES=  0.000000000000000    
_COSMOEDS=  0.000000000000000    
_COSMOEC=  0.000000000000000    
_COSMOEDCORR=  0.000000000000000    
_FEPSI= 1.0000000000000000    
_SL_IsMM=  0.000000000000000    
_SL_NSYM=  8.000000000000000    
_SL_System_BitSw=  0.000000000000000    
_SL_Unique_atoms=  0.000000000000000    
_SL_GRAD=  0.000000000000000    
_SL_MAXUPD_Hess=  5.000000000000000    
_SL_N_PRINT_COD=  5.000000000000000    
_SL_PRINT_CODES=  0.000000000000000    
_SL_BasType=  0.000000000000000    
_SL_Energy_Pred=  0.000000000000000    
_SL_New_Coords=  0.000000000000000    
_SL_Total_Nuclea=  0.000000000000000    
_SL_Highest_Mltp=  0.000000000000000    
_SL_Ref_Geom=  0.000000000000000    
_SL_Symmetry_ope= 1.0000000000000000    
_SL_agrad=  0.000000000000000    
_SL_GrdMax=  0.000000000000000    
_SL_GrdNorm=  0.000000000000000    
_SL_GrdRMS=  0.000000000000000    
!LATTICE=-1.0000000000000000    
!NEWLATTICE=  0.000000000000000    
!LATGRAD_VAR=FALSE
!SEW_LATTICE= 1.0000000000000000    
!LOCAL=  0.000000000000000    
!SAVEDOM=-1.0000000000000000    
!RESTDOM=-1.0000000000000000    
!SAVEDOM_HF=-1.0000000000000000    
!RESTDOM_HF=-1.0000000000000000    
!HESSREC=  0.000000000000000    
!FREQREC=  0.000000000000000    
!NMODREC=  0.000000000000000    
!GTASKS=  0.000000000000000    
!HTASKS=  0.000000000000000    
!THRCHG= 0.1000000000000000    
!DEBUG=-1.0000000000000000    
!CFIT_CPHF=  0.000000000000000    
!RDOMAUX_CPHF=  3.000000000000000    
!THRAO_CPHF= 0.1000000000000000E-09
!THRMO_CPHF= 0.1000000000000000E-09
!THROV_CPHF= 0.1000000000000000E-11
!THRSW_CPHF= 0.1000000000000000E-09
!THRPROD_CPHF= 0.1000000000000000E-09
!THRAOPR_CPHF= 0.1000000000000000E-11
!CFIT_SCFGRD=  0.000000000000000    
!RDOMAUX_SCFGRD=  5.000000000000000    
!THRAO_SCFGRD= 0.1000000000000000E-09
!THRMO_SCFGRD= 0.1000000000000000E-09
!THROV_SCFGRD= 0.1000000000000000E-11
!THRSW_SCFGRD= 0.1000000000000000E-09
!THRPROD_SCFGRD= 0.1000000000000000E-09
!THRAOPR_SCFGRD= 0.1000000000000000E-11
!LOCFIT_SCF=  0.000000000000000    
!LOCFIT_MP2=-1.0000000000000000    
_RIDOM=  0.000000000000000    
!CC2_METHOD=  0.000000000000000    
_BASIS2006=FALSE
_SVDDEL=-1.0000000000000000    
_SVDDELA=-1.0000000000000000    
_SVDDELP=-1.0000000000000000    
_SVDDELF=-1.0000000000000000    
_SVDDELS=-1.0000000000000000    
_SVDDEL_ABS=-1.0000000000000000    
_SVDDELA_ABS=-1.0000000000000000    
_SVDDELP_ABS=-1.0000000000000000    
_SVDDELF_ABS=-1.0000000000000000    
_SVDDELS_ABS=-1.0000000000000000    
_MAXBASIS=  0.000000000000000    
!OPT_CONICAL=  0.000000000000000    
!CLEARSP_JGRID=  0.000000000000000    
_4EXT_NDISKS= 1.0000000000000000    
!ZMP=  0.000000000000000    
_MAXIT_ZMP=  500.0000000000000    
_MAXDIS_ZMP= 100.00000000000000    
_ACCU_ZMP=  14.00000000000000    
_SHIFTA_ZMP=-100.00000000000000    
!EMBEDFLAG= 1.0000000000000000    
!EMBED=FALSE
!EMBED_F12=FALSE
!EMBEDNUC=  0.000000000000000    
_EMBEDENERGY=  0.000000000000000    
_KSPACETIME=  0.000000000000000    
_RSPACETIME=  0.000000000000000    
!EMBED_DFC=FALSE
!NUM_VOIDS=  0.000000000000000    
_IBODY=  0.000000000000000    
_EMBE_TOTAL=  0.000000000000000    
_EMBE_HF=  0.000000000000000    
_EMBE_CORR=  0.000000000000000    
!EDFT=  0.000000000000000    
_IFASTLATGRAD=  0.000000000000000    
_SINDEX=  0.000000000000000    
GEOMTYP=XYZ
GX1=  0.000000000000000    
GY1=  1.388606137978418    
GZ1=  0.000000000000000    
GX2=  1.202570757694841    
GY2= 0.6943029679432122    
GZ2=  0.000000000000000    
GX3=  1.202570757694841    
GY3=-0.6943029679432122    
GZ3=  0.000000000000000    
GX4=  0.000000000000000    
GY4= -1.388606137978418    
GZ4=  0.000000000000000    
GX5= -1.202570757694841    
GY5=-0.6943029679432122    
GZ5=  0.000000000000000    
GX6= -1.202570757694841    
GY6= 0.6943029679432122    
GZ6=  0.000000000000000    
GX7=  0.000000000000000    
GY7=  2.470830588574858    
GZ7=  0.000000000000000    
GX8=  2.139803328219049    
GY8=  1.235419124656822    
GZ8=  0.000000000000000    
GX9=  2.139803328219049    
GY9= -1.235419124656822    
GZ9=  0.000000000000000    
GX10=  0.000000000000000    
GY10= -2.470830588574858    
GZ10=  0.000000000000000    
GX11= -2.139803328219049    
GY11= -1.235419124656822    
GZ11=  0.000000000000000    
GX12= -2.139803328219049    
GY12=  1.235419124656822    
GZ12=  0.000000000000000    
[Atoms] Angs
C     1    6         0.0000000000        1.3886061380        0.0000000000
C     2    6         1.2025707577        0.6943029679        0.0000000000
C     3    6         1.2025707577       -0.6943029679        0.0000000000
C     4    6         0.0000000000       -1.3886061380        0.0000000000
C     5    6        -1.2025707577       -0.6943029679        0.0000000000
C     6    6        -1.2025707577        0.6943029679        0.0000000000
H     7    1         0.0000000000        2.4708305886        0.0000000000
H     8    1         2.1398033282        1.2354191247        0.0000000000
H     9    1         2.1398033282       -1.2354191247        0.0000000000
H    10    1         0.0000000000       -2.4708305886        0.0000000000
H    11    1        -2.1398033282       -1.2354191247        0.0000000000
H    12    1        -2.1398033282        1.2354191247        0.0000000000
[GTO]
  1 0
 s    9  1.00
  0.6665000000D+04  0.6920001793D-03
  0.1000000000D+04  0.5329001381D-02
  0.2280000000D+03  0.2707700701D-01
  0.6471000000D+02  0.1017180264D+00
  0.2106000000D+02  0.2747400712D+00
  0.7495000000D+01  0.4485641162D+00
  0.2797000000D+01  0.2850740738D+00
  0.5215000000D+00  0.1520400394D-01
  0.1596000000D+00 -0.3191000827D-02
 s    9  1.00
  0.6665000000D+04 -0.1460000642D-03
  0.1000000000D+04 -0.1154000508D-02
  0.2280000000D+03 -0.5725002519D-02
  0.6471000000D+02 -0.2331201026D-01
  0.2106000000D+02 -0.6395502813D-01
  0.7495000000D+01 -0.1499810660D+00
  0.2797000000D+01 -0.1272620560D+00
  0.5215000000D+00  0.5445292395D+00
  0.1596000000D+00  0.5804962554D+00
 s    9  1.00
  0.6665000000D+04  0.0000000000D+00
  0.1000000000D+04  0.0000000000D+00
  0.2280000000D+03  0.0000000000D+00
  0.6471000000D+02  0.0000000000D+00
  0.2106000000D+02  0.0000000000D+00
  0.7495000000D+01  0.0000000000D+00
  0.2797000000D+01  0.0000000000D+00
  0.5215000000D+00  0.0000000000D+00
  0.1596000000D+00  0.1000000000D+01
 p    4  1.00
  0.9439000000D+01  0.3810902127D-01
  0.2002000000D+01  0.2094801169D+00
  0.5456000000D+00  0.5085572839D+00
  0.1517000000D+00  0.4688422617D+00
 p    4  1.00
  0.9439000000D+01  0.0000000000D+00
  0.2002000000D+01  0.0000000000D+00
  0.5456000000D+00  0.0000000000D+00
  0.1517000000D+00  0.1000000000D+01
 d    1  1.00
  0.5500000000D+00  0.1000000000D+01
  
  4 0
 s    9  1.00
  0.6665000000D+04  0.6920001793D-03
  0.1000000000D+04  0.5329001381D-02
  0.2280000000D+03  0.2707700701D-01
  0.6471000000D+02  0.1017180264D+00
  0.2106000000D+02  0.2747400712D+00
  0.7495000000D+01  0.4485641162D+00
  0.2797000000D+01  0.2850740738D+00
  0.5215000000D+00  0.1520400394D-01
  0.1596000000D+00 -0.3191000827D-02
 s    9  1.00
  0.6665000000D+04 -0.1460000642D-03
  0.1000000000D+04 -0.1154000508D-02
  0.2280000000D+03 -0.5725002519D-02
  0.6471000000D+02 -0.2331201026D-01
  0.2106000000D+02 -0.6395502813D-01
  0.7495000000D+01 -0.1499810660D+00
  0.2797000000D+01 -0.1272620560D+00
  0.5215000000D+00  0.5445292395D+00
  0.1596000000D+00  0.5804962554D+00
 s    9  1.00
  0.6665000000D+04  0.0000000000D+00
  0.1000000000D+04  0.0000000000D+00
  0.2280000000D+03  0.0000000000D+00
  0.6471000000D+02  0.0000000000D+00
  0.2106000000D+02  0.0000000000D+00
  0.7495000000D+01  0.0000000000D+00
  0.2797000000D+01  0.0000000000D+00
  0.5215000000D+00  0.0000000000D+00
  0.1596000000D+00  0.1000000000D+01
 p    4  1.00
  0.9439000000D+01  0.3810902127D-01
  0.2002000000D+01  0.2094801169D+00
  0.5456000000D+00  0.5085572839D+00
  0.1517000000D+00  0.4688422617D+00
 p    4  1.00
  0.9439000000D+01  0.0000000000D+00
  0.2002000000D+01  0.0000000000D+00
  0.5456000000D+00  0.0000000000D+00
  0.1517000000D+00  0.1000000000D+01
 d    1  1.00
  0.5500000000D+00  0.1000000000D+01
  
  2 0
 s    9  1.00
  0.6665000000D+04  0.6920001793D-03
  0.1000000000D+04  0.5329001381D-02
  0.2280000000D+03  0.2707700701D-01
  0.6471000000D+02  0.1017180264D+00
  0.2106000000D+02  0.2747400712D+00
  0.7495000000D+01  0.4485641162D+00
  0.2797000000D+01  0.2850740738D+00
  0.5215000000D+00  0.1520400394D-01
  0.1596000000D+00 -0.3191000827D-02
 s    9  1.00
  0.6665000000D+04 -0.1460000642D-03
  0.1000000000D+04 -0.1154000508D-02
  0.2280000000D+03 -0.5725002519D-02
  0.6471000000D+02 -0.2331201026D-01
  0.2106000000D+02 -0.6395502813D-01
  0.7495000000D+01 -0.1499810660D+00
  0.2797000000D+01 -0.1272620560D+00
  0.5215000000D+00  0.5445292395D+00
  0.1596000000D+00  0.5804962554D+00
 s    9  1.00
  0.6665000000D+04  0.0000000000D+00
  0.1000000000D+04  0.0000000000D+00
  0.2280000000D+03  0.0000000000D+00
  0.6471000000D+02  0.0000000000D+00
  0.2106000000D+02  0.0000000000D+00
  0.7495000000D+01  0.0000000000D+00
  0.2797000000D+01  0.0000000000D+00
  0.5215000000D+00  0.0000000000D+00
  0.1596000000D+00  0.1000000000D+01
 p    4  1.00
  0.9439000000D+01  0.3810902127D-01
  0.2002000000D+01  0.2094801169D+00
  0.5456000000D+00  0.5085572839D+00
  0.1517000000D+00  0.4688422617D+00
 p    4  1.00
  0.9439000000D+01  0.0000000000D+00
  0.2002000000D+01  0.0000000000D+00
  0.5456000000D+00  0.0000000000D+00
  0.1517000000D+00  0.1000000000D+01
 d    1  1.00
  0.5500000000D+00  0.1000000000D+01
  
  3 0
 s    9  1.00
  0.6665000000D+04  0.6920001793D-03
  0.1000000000D+04  0.5329001381D-02
  0.2280000000D+03  0.2707700701D-01
  0.6471000000D+02  0.1017180264D+00
  0.2106000000D+02  0.2747400712D+00
  0.7495000000D+01  0.4485641162D+00
  0.2797000000D+01  0.2850740738D+00
  0.5215000000D+00  0.1520400394D-01
  0.1596000000D+00 -0.3191000827D-02
 s    9  1.00
  0.6665000000D+04 -0.1460000642D-03
  0.1000000000D+04 -0.1154000508D-02
  0.2280000000D+03 -0.5725002519D-02
  0.6471000000D+02 -0.2331201026D-01
  0.2106000000D+02 -0.6395502813D-01
  0.7495000000D+01 -0.1499810660D+00
  0.2797000000D+01 -0.1272620560D+00
  0.5215000000D+00  0.5445292395D+00
  0.1596000000D+00  0.5804962554D+00
 s    9  1.00
  0.6665000000D+04  0.0000000000D+00
  0.1000000000D+04  0.0000000000D+00
  0.2280000000D+03  0.0000000000D+00
  0.6471000000D+02  0.0000000000D+00
  0.2106000000D+02  0.0000000000D+00
  0.7495000000D+01  0.0000000000D+00
  0.2797000000D+01  0.0000000000D+00
  0.5215000000D+00  0.0000000000D+00
  0.1596000000D+00  0.1000000000D+01
 p    4  1.00
  0.9439000000D+01  0.3810902127D-01
  0.2002000000D+01  0.2094801169D+00
  0.5456000000D+00  0.5085572839D+00
  0.1517000000D+00  0.4688422617D+00
 p    4  1.00
  0.9439000000D+01  0.0000000000D+00
  0.2002000000D+01  0.0000000000D+00
  0.5456000000D+00  0.0000000000D+00
  0.1517000000D+00  0.1000000000D+01
 d    1  1.00
  0.5500000000D+00  0.1000000000D+01
  
  5 0
 s    9  1.00
  0.6665000000D+04  0.6920001793D-03
  0.1000000000D+04  0.5329001381D-02
  0.2280000000D+03  0.2707700701D-01
  0.6471000000D+02  0.1017180264D+00
  0.2106000000D+02  0.2747400712D+00
  0.7495000000D+01  0.4485641162D+00
  0.2797000000D+01  0.2850740738D+00
  0.5215000000D+00  0.1520400394D-01
  0.1596000000D+00 -0.3191000827D-02
 s    9  1.00
  0.6665000000D+04 -0.1460000642D-03
  0.1000000000D+04 -0.1154000508D-02
  0.2280000000D+03 -0.5725002519D-02
  0.6471000000D+02 -0.2331201026D-01
  0.2106000000D+02 -0.6395502813D-01
  0.7495000000D+01 -0.1499810660D+00
  0.2797000000D+01 -0.1272620560D+00
  0.5215000000D+00  0.5445292395D+00
  0.1596000000D+00  0.5804962554D+00
 s    9  1.00
  0.6665000000D+04  0.0000000000D+00
  0.1000000000D+04  0.0000000000D+00
  0.2280000000D+03  0.0000000000D+00
  0.6471000000D+02  0.0000000000D+00
  0.2106000000D+02  0.0000000000D+00
  0.7495000000D+01  0.0000000000D+00
  0.2797000000D+01  0.0000000000D+00
  0.5215000000D+00  0.0000000000D+00
  0.1596000000D+00  0.1000000000D+01
 p    4  1.00
  0.9439000000D+01  0.3810902127D-01
  0.2002000000D+01  0.2094801169D+00
  0.5456000000D+00  0.5085572839D+00
  0.1517000000D+00  0.4688422617D+00
 p    4  1.00
  0.9439000000D+01  0.0000000000D+00
  0.2002000000D+01  0.0000000000D+00
  0.5456000000D+00  0.0000000000D+00
  0.1517000000D+00  0.1000000000D+01
 d    1  1.00
  0.5500000000D+00  0.1000000000D+01
  
  6 0
 s    9  1.00
  0.6665000000D+04  0.6920001793D-03
  0.1000000000D+04  0.5329001381D-02
  0.2280000000D+03  0.2707700701D-01
  0.6471000000D+02  0.1017180264D+00
  0.2106000000D+02  0.2747400712D+00
  0.7495000000D+01  0.4485641162D+00
  0.2797000000D+01  0.2850740738D+00
  0.5215000000D+00  0.1520400394D-01
  0.1596000000D+00 -0.3191000827D-02
 s    9  1.00
  0.6665000000D+04 -0.1460000642D-03
  0.1000000000D+04 -0.1154000508D-02
  0.2280000000D+03 -0.5725002519D-02
  0.6471000000D+02 -0.2331201026D-01
  0.2106000000D+02 -0.6395502813D-01
  0.7495000000D+01 -0.1499810660D+00
  0.2797000000D+01 -0.1272620560D+00
  0.5215000000D+00  0.5445292395D+00
  0.1596000000D+00  0.5804962554D+00
 s    9  1.00
  0.6665000000D+04  0.0000000000D+00
  0.1000000000D+04  0.0000000000D+00
  0.2280000000D+03  0.0000000000D+00
  0.6471000000D+02  0.0000000000D+00
  0.2106000000D+02  0.0000000000D+00
  0.7495000000D+01  0.0000000000D+00
  0.2797000000D+01  0.0000000000D+00
  0.5215000000D+00  0.0000000000D+00
  0.1596000000D+00  0.1000000000D+01
 p    4  1.00
  0.9439000000D+01  0.3810902127D-01
  0.2002000000D+01  0.2094801169D+00
  0.5456000000D+00  0.5085572839D+00
  0.1517000000D+00  0.4688422617D+00
 p    4  1.00
  0.9439000000D+01  0.0000000000D+00
  0.2002000000D+01  0.0000000000D+00
  0.5456000000D+00  0.0000000000D+00
  0.1517000000D+00  0.1000000000D+01
 d    1  1.00
  0.5500000000D+00  0.1000000000D+01
  
  7 0
 s    4  1.00
  0.1301000000D+02  0.1968498999D-01
  0.1962000000D+01  0.1379769298D+00
  0.4446000000D+00  0.4781477569D+00
  0.1220000000D+00  0.5012397451D+00
 s    4  1.00
  0.1301000000D+02  0.0000000000D+00
  0.1962000000D+01  0.0000000000D+00
  0.4446000000D+00  0.0000000000D+00
  0.1220000000D+00  0.1000000000D+01
 p    1  1.00
  0.7270000000D+00  0.1000000000D+01
  
 10 0
 s    4  1.00
  0.1301000000D+02  0.1968498999D-01
  0.1962000000D+01  0.1379769298D+00
  0.4446000000D+00  0.4781477569D+00
  0.1220000000D+00  0.5012397451D+00
 s    4  1.00
  0.1301000000D+02  0.0000000000D+00
  0.1962000000D+01  0.0000000000D+00
  0.4446000000D+00  0.0000000000D+00
  0.1220000000D+00  0.1000000000D+01
 p    1  1.00
  0.7270000000D+00  0.1000000000D+01
  
  8 0
 s    4  1.00
  0.1301000000D+02  0.1968498999D-01
  0.1962000000D+01  0.1379769298D+00
  0.4446000000D+00  0.4781477569D+00
  0.1220000000D+00  0.5012397451D+00
 s    4  1.00
  0.1301000000D+02  0.0000000000D+00
  0.1962000000D+01  0.0000000000D+00
  0.4446000000D+00  0.0000000000D+00
  0.1220000000D+00  0.1000000000D+01
 p    1  1.00
  0.7270000000D+00  0.1000000000D+01
  
  9 0
 s    4  1.00
  0.1301000000D+02  0.1968498999D-01
  0.1962000000D+01  0.1379769298D+00
  0.4446000000D+00  0.4781477569D+00
  0.1220000000D+00  0.5012397451D+00
 s    4  1.00
  0.1301000000D+02  0.0000000000D+00
  0.1962000000D+01  0.0000000000D+00
  0.4446000000D+00  0.0000000000D+00
  0.1220000000D+00  0.1000000000D+01
 p    1  1.00
  0.7270000000D+00  0.1000000000D+01
  
 11 0
 s    4  1.00
  0.1301000000D+02  0.1968498999D-01
  0.1962000000D+01  0.1379769298D+00
  0.4446000000D+00  0.4781477569D+00
  0.1220000000D+00  0.5012397451D+00
 s    4  1.00
  0.1301000000D+02  0.0000000000D+00
  0.1962000000D+01  0.0000000000D+00
  0.4446000000D+00  0.0000000000D+00
  0.1220000000D+00  0.1000000000D+01
 p    1  1.00
  0.7270000000D+00  0.1000000000D+01
  
 12 0
 s    4  1.00
  0.1301000000D+02  0.1968498999D-01
  0.1962000000D+01  0.1379769298D+00
  0.4446000000D+00  0.4781477569D+00
  0.1220000000D+00  0.5012397451D+00
 s    4  1.00
  0.1301000000D+02  0.0000000000D+00
  0.1962000000D+01  0.0000000000D+00
  0.4446000000D+00  0.0000000000D+00
  0.1220000000D+00  0.1000000000D+01
 p    1  1.00
  0.7270000000D+00  0.1000000000D+01
 
 
[MO]
 Sym=      1.1
 Ene=     -11.2370
 Spin= Alpha
 Occup=    2.000000
1 0.40856202392946
2 0.002936050936593
3 -0.002268674838804
4 0.0
5 0.000126127347349
6 0.0
7 0.0
8 -0.000296200038723
9 0.0
10 -0.000039296243397
11 0.000104356942284
12 -0.000065060698887
13 0.0
14 0.0
15 0.0
16 0.40856202392946
17 0.002936050936593
18 -0.002268674838804
19 0.0
20 -0.000126127347349
21 0.0
22 0.0
23 0.000296200038723
24 0.0
25 -0.000039296243397
26 0.000104356942284
27 -0.000065060698887
28 0.0
29 0.0
30 0.0
31 0.40856423138287
32 0.002936074045543
33 -0.002268734806300
34 0.000109229968896
35 0.000063063962497
36 0.0
37 -0.000256491394587
38 -0.000148092547493
39 0.0
40 0.000068439447573
41 -0.000003376990755
42 -0.000065062456818
43 0.000071824735107
44 0.0
45 0.0
46 0.40856423138287
47 0.002936074045543
48 -0.002268734806300
49 0.000109229968896
50 -0.000063063962497
51 0.0
52 -0.000256491394587
53 0.000148092547493
54 0.0
55 0.000068439447573
56 -0.000003376990755
57 -0.000065062456818
58 -0.000071824735107
59 0.0
60 0.0
61 0.40856423138287
62 0.002936074045543
63 -0.002268734806300
64 -0.000109229968896
65 -0.000063063962497
66 0.0
67 0.000256491394587
68 0.000148092547493
69 0.0
70 0.000068439447573
71 -0.000003376990755
72 -0.000065062456818
73 0.000071824735107
74 0.0
75 0.0
76 0.40856423138287
77 0.002936074045543
78 -0.002268734806300
79 -0.000109229968896
80 0.000063063962497
81 0.0
82 0.000256491394587
83 -0.000148092547493
84 0.0
85 0.000068439447573
86 -0.000003376990755
87 -0.000065062456818
88 -0.000071824735107
89 0.0
90 0.0
91 -0.000228281897293
92 0.000818112568306
93 0.0
94 0.000133549440606
95 0.0
96 -0.000228281897293
97 0.000818112568306
98 0.0
99 -0.000133549440606
100 0.0
101 -0.000228282188541
102 0.000818106630350
103 0.000115657759275
104 0.000066774600726
105 0.0
106 -0.000228282188541
107 0.000818106630350
108 0.000115657759275
109 -0.000066774600726
110 0.0
111 -0.000228282188541
112 0.000818106630350
113 -0.000115657759275
114 -0.000066774600726
115 0.0
116 -0.000228282188541
117 0.000818106630350
118 -0.000115657759275
119 0.000066774600726
120 0.0
 Sym=      1.2
 Ene=     -11.2364
 Spin= Alpha
 Occup=    2.000000
1 0.0
2 0.0
3 0.0
4 -0.000066450036520
5 0.0
6 0.0
7 0.001567291513546
8 0.0
9 0.0
10 0.0
11 0.0
12 0.0
13 -0.000003957974009
14 0.0
15 0.0
16 0.0
17 0.0
18 0.0
19 -0.000066450036520
20 0.0
21 0.0
22 0.001567291513546
23 0.0
24 0.0
25 0.0
26 0.0
27 0.0
28 0.000003957974009
29 0.0
30 0.0
31 0.50066564649061
32 0.004343127965784
33 -0.004977164040304
34 0.000042805612168
35 0.000063079688842
36 0.0
37 0.000648176008670
38 -0.000530652706279
39 0.0
40 0.000056105995342
41 0.000012048092326
42 -0.000068154087668
43 0.000048023562768
44 0.0
45 0.0
46 0.50066564649061
47 0.004343127965784
48 -0.004977164040304
49 0.000042805612168
50 -0.000063079688842
51 0.0
52 0.000648176008670
53 0.000530652706279
54 0.0
55 0.000056105995342
56 0.000012048092326
57 -0.000068154087668
58 -0.000048023562768
59 0.0
60 0.0
61 -0.50066564649061
62 -0.004343127965784
63 0.004977164040304
64 0.000042805612168
65 0.000063079688842
66 0.0
67 0.000648176008670
68 -0.000530652706279
69 0.0
70 -0.000056105995342
71 -0.000012048092326
72 0.000068154087668
73 -0.000048023562768
74 0.0
75 0.0
76 -0.50066564649061
77 -0.004343127965784
78 0.004977164040304
79 0.000042805612168
80 -0.000063079688842
81 0.0
82 0.000648176008670
83 0.000530652706279
84 0.0
85 -0.000056105995342
86 -0.000012048092326
87 0.000068154087668
88 0.000048023562768
89 0.0
90 0.0
91 0.0
92 0.0
93 -0.000000202051641
94 0.0
95 0.0
96 0.0
97 0.0
98 -0.000000202051641
99 0.0
100 0.0
101 -0.000243289076539
102 0.000658262674736
103 0.000179772731917
104 0.000103907782912
105 0.0
106 -0.000243289076539
107 0.000658262674736
108 0.000179772731917
109 -0.000103907782912
110 0.0
111 0.000243289076539
112 -0.000658262674736
113 0.000179772731917
114 0.000103907782912
115 0.0
116 0.000243289076539
117 -0.000658262674736
118 0.000179772731917
119 -0.000103907782912
120 0.0
 Sym=      1.3
 Ene=     -11.2364
 Spin= Alpha
 Occup=    2.000000
1 0.57811927884316
2 0.005015019592655
3 -0.005747143292112
4 0.0
5 0.000079224766705
6 0.0
7 0.0
8 0.000341807013454
9 0.0
10 -0.000014959164527
11 0.000093656365379
12 -0.000078697200852
13 0.0
14 0.0
15 0.0
16 -0.57811927884316
17 -0.005015019592655
18 0.005747143292112
19 0.0
20 0.000079224766705
21 0.0
22 0.0
23 0.000341807013454
24 0.0
25 0.000014959164527
26 -0.000093656365379
27 0.000078697200852
28 0.0
29 0.0
30 0.0
31 0.28905906432667
32 0.002507505727640
33 -0.002873560309835
34 0.000063079849967
35 -0.000030035198780
36 0.0
37 -0.000530653951799
38 0.001260915537495
39 0.0
40 0.000035819805412
41 0.000003529107694
42 -0.000039348913106
43 0.000025446486717
44 0.0
45 0.0
46 -0.28905906432667
47 -0.002507505727640
48 0.002873560309835
49 -0.000063079849967
50 -0.000030035198780
51 0.0
52 0.000530653951799
53 0.001260915537495
54 0.0
55 -0.000035819805412
56 -0.000003529107694
57 0.000039348913106
58 0.000025446486717
59 0.0
60 0.0
61 -0.28905906432667
62 -0.002507505727640
63 0.002873560309835
64 0.000063079849967
65 -0.000030035198780
66 0.0
67 -0.000530653951799
68 0.001260915537495
69 0.0
70 -0.000035819805412
71 -0.000003529107694
72 0.000039348913106
73 -0.000025446486717
74 0.0
75 0.0
76 0.28905906432667
77 0.002507505727640
78 -0.002873560309835
79 -0.000063079849967
80 -0.000030035198780
81 0.0
82 0.000530653951799
83 0.001260915537495
84 0.0
85 0.000035819805412
86 0.000003529107694
87 -0.000039348913106
88 -0.000025446486717
89 0.0
90 0.0
91 -0.000280927009857
92 0.000760096288479
93 0.0
94 0.000239763250039
95 0.0
96 0.000280927009857
97 -0.000760096288479
98 0.0
99 0.000239763250039
100 0.0
101 -0.000140466796986
102 0.000380049609744
103 0.000103909634876
104 0.000059788842971
105 0.0
106 0.000140466796986
107 -0.000380049609744
108 -0.000103909634876
109 0.000059788842971
110 0.0
111 0.000140466796986
112 -0.000380049609744
113 0.000103909634876
114 0.000059788842971
115 0.0
116 -0.000140466796986
117 0.000380049609744
118 -0.000103909634876
119 0.000059788842971
120 0.0
 Sym=      2.1
 Ene=     -11.2352
 Spin= Alpha
 Occup=    2.000000
1 0.57843022996919
2 0.005561793424748
3 -0.007999663716250
4 0.0
5 0.000065080070099
6 0.0
7 0.0
8 0.001522211428826
9 0.0
10 0.000213947952131
11 0.000309657469920
12 -0.000523605422050
13 0.0
14 0.0
15 0.0
16 0.57843022996919
17 0.005561793424748
18 -0.007999663716250
19 0.0
20 -0.000065080070099
21 0.0
22 0.0
23 -0.001522211428826
24 0.0
25 0.000213947952131
26 0.000309657469920
27 -0.000523605422050
28 0.0
29 0.0
30 0.0
31 -0.28921355478354
32 -0.002780888696182
33 0.003999825108396
34 0.000018694582843
35 -0.000097454956656
36 0.0
37 -0.000989718350211
38 0.000192022325361
39 0.0
40 -0.000230532181854
41 -0.000031270071102
42 0.000261802252956
43 0.000034519121389
44 0.0
45 0.0
46 -0.28921355478354
47 -0.002780888696182
48 0.003999825108396
49 0.000018694582843
50 0.000097454956656
51 0.0
52 -0.000989718350211
53 -0.000192022325361
54 0.0
55 -0.000230532181854
56 -0.000031270071102
57 0.000261802252956
58 -0.000034519121389
59 0.0
60 0.0
61 -0.28921355478354
62 -0.002780888696182
63 0.003999825108396
64 -0.000018694582843
65 0.000097454956656
66 0.0
67 0.000989718350211
68 -0.000192022325361
69 0.0
70 -0.000230532181854
71 -0.000031270071102
72 0.000261802252956
73 0.000034519121389
74 0.0
75 0.0
76 -0.28921355478354
77 -0.002780888696182
78 0.003999825108396
79 -0.000018694582843
80 -0.000097454956656
81 0.0
82 0.000989718350211
83 0.000192022325361
84 0.0
85 -0.000230532181854
86 -0.000031270071102
87 0.000261802252956
88 -0.000034519121389
89 0.0
90 0.0
91 -0.000629422353084
92 0.000569410279169
93 0.0
94 0.000402517902678
95 0.0
96 -0.000629422353084
97 0.000569410279169
98 0.0
99 -0.000402517902678
100 0.0
101 0.000314708235631
102 -0.000284700453056
103 -0.000171132399830
104 -0.000106106263463
105 0.0
106 0.000314708235631
107 -0.000284700453056
108 -0.000171132399830
109 0.000106106263463
110 0.0
111 0.000314708235631
112 -0.000284700453056
113 0.000171132399830
114 0.000106106263463
115 0.0
116 0.000314708235631
117 -0.000284700453056
118 0.000171132399830
119 -0.000106106263463
120 0.0
 Sym=      1.4
 Ene=     -11.2352
 Spin= Alpha
 Occup=    2.000000
1 0.0
2 0.0
3 0.0
4 -0.000108244387501
5 0.0
6 0.0
7 0.000763432486169
8 0.0
9 0.0
10 0.0
11 0.0
12 0.0