[Molden Format]
[Molpro variables]
_NUMVAR=  783.0000000000000    
_AVOGAD= 0.6022136736000000E+24
_BOLTZ= 0.1380658000000000E-22
_CLIGHT=  29979245800.00000    
_EV2006= 0.3674930886769165E-01
_EV= 0.3674932534394180E-01
_ENULL= 0.8854187817000000E-11
_KJOULE= 0.3808798324128737E-03
_KJOULE/MOL= 0.3808798324128737E-03
_CM= 0.4556335267302901E-05
_CM-1= 0.4556335267302901E-05
_DEB2SI= 0.3335641000000000E-29
_AMU2AU=  1822.888390000000    
_KCAL= 0.1593601117815568E-02
_KCAL/MOL= 0.1593601117815568E-02
_KELVIN2006= 0.3166828861084835E-05
_KELVIN= 0.3166814820820034E-05
_JOULE= 0.4359748200000000E-17
_HERTZ2006= 0.1519829850815779E-15
_HERTZ= 0.1519829846011223E-15
_HZ2006= 0.1519829850815779E-15
_HZ= 0.1519829846011223E-15
_JPCAL=  4.184000000000000    
_PLANCK= 0.6626075540000000E-33
_TOA2006= 0.5291772490000000    
_TOA= 0.5291772090000000    
_TOANG2006= 0.5291772490000000    
_TOANG= 0.5291772090000000    
_TORAD= 0.1745329251994330E-01
_TOCM=  219474.6306700000    
_TODEBYE=  2.541580000000000    
_TOEV2006=  27.21139610000000    
_TOE= 0.4803242000000000E-09
_TOEV=  27.21138390000000    
_TOHERTZ2006=  6579683899900000.    
_TOHERTZ=  6579683920700000.    
_TOHZ2006=  6579683899900000.    
_TOHZ=  6579683920700000.    
_TOK2006=  315773.3000000000    
_TOK=  315774.7000000000    
_TOKCAL=  627.5096000000000    
_TOKELVIN2006=  315773.3000000000    
_TOKELVIN=  315774.7000000000    
_TOKJ=  2625.500000000000    
_TOKJOULE=  2625.500000000000    
_TOKG= 0.1660565586000000E-26
_ANG2006=  1.889725988578923    
_ANG=  1.889726131421507    
_ANGSTROM2006=  1.889725988578923    
_ANGSTROM=  1.889726131421507    
_RPAREF=  0.000000000000000    
_RPADISS=  0.000000000000000    
_IGNORE_UNDEF=  2.000000000000000    
_STRICTCHECK=  0.000000000000000    
_SEW_ONEEL=  0.000000000000000    
_CPPDONE=FALSE
_DKROLL_DONE=  0.000000000000000    
_FOCKDONE=TRUE
_GRADONE=FALSE
_HESSDONE=FALSE
_INTDONE=TRUE
_SCFDONE=TRUE
_MODUL_BLOCK=FALSE
_MODUL_CUDA=FALSE
_MODUL_SLATER=FALSE
_MODUL_MRCC=FALSE
_MODUL_NBO6=FALSE
_MODUL_NECI=TRUE
_MODUL_AIMS=TRUE
_MRCC_EXEC=
_FITC_AO_SAVED=FALSE
_FITC_MO_SAVED=FALSE
_SHARED_FS=TRUE
_LSTYP=SEWARD
_INTYP=INTS
_GEOMTYP=ZMAT
_GRADTYP=ALASKA
_DIRECT=FALSE
_DKHO=-1.0000000000000000    
_SYNCM=  0.000000000000000    
_BASIS=CC-PVDZ
_ZORIENT= 1.0000000000000000    
_NELEC= 10.000000000000000    
!SPIN=  0.000000000000000    
_QSDSTEP=  0.000000000000000    
_QSDIRC=  0.000000000000000    
_PROGRAM=RHF-SCF
_CPUSTEP=  0.000000000000000    
_SYSSTEP=  0.000000000000000    
_WALLSTEP= 0.2000000000000000E-01
!DFSCF=  0.000000000000000    
!SCSGRD=  0.000000000000000    
_BASINP=  610.0000000000000    
_CPUTOT= 0.1400000000000000    
_CPUSORT= 0.2000000000000002E-01
_SYSSORT= 0.3000000000000001E-01
_WALLSORT= 0.4999999888241291E-01
_DFTEXFAC= 1.0000000000000000    
_DMX=  0.000000000000000    
_DMY=  0.000000000000000    
_DMZ= 0.8172591820494007    
_DMX_SCF=  0.000000000000000    
_DMY_SCF=  0.000000000000000    
_DMZ_SCF= 0.8172591820494007    
_EHOMO=-0.4841844776025083    
_ELUMO= 0.1592015141881836    
_ENERGY= -75.99204487445871    
_ENUC=  8.064982892813699    
_EPS1= -20.56924825673983    
_EPS2=-0.4841844776025083    
_EPS3=-0.6416237366394764    
_EPS4=  1.439361400520342    
_GRADEXFAC=  9999.000000000000    
_GRADMETHOD= 1.0000000000000000    
_NMRMETHOD=  0.000000000000000    
!GRID_FREEZE=-1.0000000000000000    
_ITERATIONS= 10.000000000000000    
_LASTNELEC= 10.000000000000000    
_LASTSPIN=  0.000000000000000    
_LASTSYM= 1.0000000000000000    
_MPP_PROG=  0.000000000000000    
_NPROC_MPP= 1.0000000000000000    
_NPROC_MPPX= 1.0000000000000000    
_NPROC_SMP= 1.0000000000000000    
_NUMSTEP=  0.000000000000000    
_ORBITAL=  2100.200000000000    
_PI=  3.141592653589793    
_SEIG_MIN= 0.2095245689662176E-01
_SEWPROP=TRUE
_STATUS= 1.0000000000000000    
_SYSTOT= 0.6000000000000000E-01
_VERSION=  2012001.000000000    
_WALLTOT= 0.2500000000000000    
_DATE=28-Sep-15
_LASTORB=RHF
_MACHINE=Linux-2.6.32-504.30.3.el6.x86_64/soroban(x86_64) 64 bit serial version
_OUTPUT=/home/vincpohl/project.orbkit/molpro/h2o_rhf_sph.xml
_PGROUP=C2v
_TIME=17:15:03
_LIBMOL=/cm/shared/apps/molpro/2012.1.10openmp/molpros_2012_1_Linux_x86_64_i8/lib/
!VIBCNT=  0.000000000000000    
!RGHFCNT=  0.000000000000000    
!SURFREC=  0.000000000000000    
!POLYREC=  0.000000000000000    
!DIPREC=  0.000000000000000    
!VSCFREC=  0.000000000000000    
!VCIREC=  0.000000000000000    
!PVCIREC=  0.000000000000000    
!VMP2REC=  0.000000000000000    
!VMCSCFREC=  0.000000000000000    
!VMRCIREC=  0.000000000000000    
!VIBINFO=  0.000000000000000    
!GAREC=  0.000000000000000    
!SCFORB=  21002.00000000000    
!NEWMOL=-1.0000000000000000    
!NEWSYM=-1.0000000000000000    
_SLFILES=slscratch
_NGSSTO=  9.000000000000000    
_SIN=SIN
_COS=COS
_TAN=TAN
_ACOS=ACOS
_ASIN=ASIN
_ATAN=ATAN
_COSH=COSH
_SINH=SINH
_TANH=TANH
_ABS=ABS
_MOD=MOD
_ERF=ERF
_REFC=REFC
_ERFC=ERFC
_HYPOT=HYPOT
_J0=J0
_J1=J1
_JN=JN
_GAMMA=GAMMA
_LGAMMA=LGAMMA
_Y0=Y0
_Y1=Y1
_YN=YN
_EXP=EXP
_LOG=LOG
_LOG10=LOG10
_SQRT=SQRT
_INT=INT
_NINT=NINT
_MAX=MAX
_MIN=MIN
_COSMO=  0.000000000000000    
_COSMOIT=  0.000000000000000    
_COSMOES=  0.000000000000000    
_COSMOEDS=  0.000000000000000    
_COSMOEC=  0.000000000000000    
_COSMOEDCORR=  0.000000000000000    
_FEPSI= 1.0000000000000000    
_SL_IsMM=  0.000000000000000    
_SL_NSYM=  4.000000000000000    
_SL_System_BitSw=  0.000000000000000    
_SL_Unique_atoms=  0.000000000000000    
_SL_GRAD=  0.000000000000000    
_SL_MAXUPD_Hess=  5.000000000000000    
_SL_N_PRINT_COD=  5.000000000000000    
_SL_PRINT_CODES=  0.000000000000000    
_SL_BasType=  0.000000000000000    
_SL_Energy_Pred=  0.000000000000000    
_SL_New_Coords=  0.000000000000000    
_SL_Total_Nuclea=  0.000000000000000    
_SL_Highest_Mltp=  0.000000000000000    
_SL_Ref_Geom=  0.000000000000000    
_SL_Symmetry_ope= 1.0000000000000000    
_SL_agrad=  0.000000000000000    
_SL_GrdMax=  0.000000000000000    
_SL_GrdNorm=  0.000000000000000    
_SL_GrdRMS=  0.000000000000000    
!LATTICE=-1.0000000000000000    
!NEWLATTICE=  0.000000000000000    
!LATGRAD_VAR=FALSE
!SEW_LATTICE= 1.0000000000000000    
!LOCAL=  0.000000000000000    
!SAVEDOM=-1.0000000000000000    
!RESTDOM=-1.0000000000000000    
!SAVEDOM_HF=-1.0000000000000000    
!RESTDOM_HF=-1.0000000000000000    
!HESSREC=  0.000000000000000    
!FREQREC=  0.000000000000000    
!NMODREC=  0.000000000000000    
!GTASKS=  0.000000000000000    
!HTASKS=  0.000000000000000    
!THRCHG= 0.1000000000000000    
!DEBUG=-1.0000000000000000    
!CFIT_CPHF=  0.000000000000000    
!RDOMAUX_CPHF=  3.000000000000000    
!THRAO_CPHF= 0.1000000000000000E-09
!THRMO_CPHF= 0.1000000000000000E-08
!THROV_CPHF= 0.1000000000000000E-11
!THRSW_CPHF= 0.1000000000000000E-09
!THRPROD_CPHF= 0.1000000000000000E-08
!THRAOPR_CPHF= 0.1000000000000000E-11
!CFIT_SCFGRD=  0.000000000000000    
!RDOMAUX_SCFGRD=  5.000000000000000    
!THRAO_SCFGRD= 0.1000000000000000E-09
!THRMO_SCFGRD= 0.1000000000000000E-08
!THROV_SCFGRD= 0.1000000000000000E-11
!THRSW_SCFGRD= 0.1000000000000000E-09
!THRPROD_SCFGRD= 0.1000000000000000E-08
!THRAOPR_SCFGRD= 0.1000000000000000E-11
!LOCFIT_SCF=  0.000000000000000    
!LOCFIT_MP2=-1.0000000000000000    
_RIDOM=  0.000000000000000    
!CC2_METHOD=  0.000000000000000    
_BASIS2006=FALSE
_SVDDEL=-1.0000000000000000    
_SVDDELA=-1.0000000000000000    
_SVDDELP=-1.0000000000000000    
_SVDDELF=-1.0000000000000000    
_SVDDELS=-1.0000000000000000    
_SVDDEL_ABS=-1.0000000000000000    
_SVDDELA_ABS=-1.0000000000000000    
_SVDDELP_ABS=-1.0000000000000000    
_SVDDELF_ABS=-1.0000000000000000    
_SVDDELS_ABS=-1.0000000000000000    
_MAXBASIS=  0.000000000000000    
!OPT_CONICAL=  0.000000000000000    
!CLEARSP_JGRID=  0.000000000000000    
_4EXT_NDISKS= 1.0000000000000000    
!ZMP=  0.000000000000000    
_MAXIT_ZMP=  500.0000000000000    
_MAXDIS_ZMP= 100.00000000000000    
_ACCU_ZMP=  14.00000000000000    
_SHIFTA_ZMP=-100.00000000000000    
!EMBEDFLAG= 1.0000000000000000    
!EMBED=FALSE
!EMBED_F12=FALSE
!EMBEDNUC=  0.000000000000000    
_EMBEDENERGY=  0.000000000000000    
_KSPACETIME=  0.000000000000000    
_RSPACETIME=  0.000000000000000    
!EMBED_DFC=FALSE
!NUM_VOIDS=  0.000000000000000    
_IBODY=  0.000000000000000    
_EMBE_TOTAL=  0.000000000000000    
_EMBE_HF=  0.000000000000000    
_EMBE_CORR=  0.000000000000000    
!EDFT=  0.000000000000000    
_IFASTLATGRAD=  0.000000000000000    
_SINDEX=  0.000000000000000    
GEOMTYP=XYZ
GX1=  0.000000000000000    
GY1=-0.8901392951000000    
GZ1= 0.5586943229000001    
GX2=  0.000000000000000    
GY2=  0.000000000000000    
GZ2=-0.7039393419999999E-01
GX3=  0.000000000000000    
GY3= 0.8901392951000000    
GZ3= 0.5586943229000001    
MD=h2o_rhf_sph.molden
[Atoms] Angs
H     1    1         0.0000000000       -0.8901392951        0.5586943229
O     2    8         0.0000000000        0.0000000000       -0.0703939342
H     3    1         0.0000000000        0.8901392951        0.5586943229
[GTO]
  1 0
 s    4  1.00
  0.1301000000D+02  0.1968498999D-01
  0.1962000000D+01  0.1379769298D+00
  0.4446000000D+00  0.4781477569D+00
  0.1220000000D+00  0.5012397451D+00
 s    4  1.00
  0.1301000000D+02  0.0000000000D+00
  0.1962000000D+01  0.0000000000D+00
  0.4446000000D+00  0.0000000000D+00
  0.1220000000D+00  0.1000000000D+01
 p    1  1.00
  0.7270000000D+00  0.1000000000D+01
  
  3 0
 s    4  1.00
  0.1301000000D+02  0.1968498999D-01
  0.1962000000D+01  0.1379769298D+00
  0.4446000000D+00  0.4781477569D+00
  0.1220000000D+00  0.5012397451D+00
 s    4  1.00
  0.1301000000D+02  0.0000000000D+00
  0.1962000000D+01  0.0000000000D+00
  0.4446000000D+00  0.0000000000D+00
  0.1220000000D+00  0.1000000000D+01
 p    1  1.00
  0.7270000000D+00  0.1000000000D+01
  
  2 0
 s    9  1.00
  0.1172000000D+05  0.7100002503D-03
  0.1759000000D+04  0.5470001928D-02
  0.4008000000D+03  0.2783700981D-01
  0.1137000000D+03  0.1048000369D+00
  0.3703000000D+02  0.2830620998D+00
  0.1327000000D+02  0.4487191582D+00
  0.5025000000D+01  0.2709520955D+00
  0.1013000000D+01  0.1545800545D-01
  0.3023000000D+00 -0.2585000911D-02
 s    9  1.00
  0.1172000000D+05 -0.1600000154D-03
  0.1759000000D+04 -0.1263000121D-02
  0.4008000000D+03 -0.6267000602D-02
  0.1137000000D+03 -0.2571600247D-01
  0.3703000000D+02 -0.7092400682D-01
  0.1327000000D+02 -0.1654110159D+00
  0.5025000000D+01 -0.1169550112D+00
  0.1013000000D+01  0.5573680536D+00
  0.3023000000D+00  0.5727590551D+00
 s    9  1.00
  0.1172000000D+05  0.0000000000D+00
  0.1759000000D+04  0.0000000000D+00
  0.4008000000D+03  0.0000000000D+00
  0.1137000000D+03  0.0000000000D+00
  0.3703000000D+02  0.0000000000D+00
  0.1327000000D+02  0.0000000000D+00
  0.5025000000D+01  0.0000000000D+00
  0.1013000000D+01  0.0000000000D+00
  0.3023000000D+00  0.1000000000D+01
 p    4  1.00
  0.1770000000D+02  0.4301799242D-01
  0.3854000000D+01  0.2289129597D+00
  0.1046000000D+01  0.5087279104D+00
  0.2753000000D+00  0.4605309189D+00
 p    4  1.00
  0.1770000000D+02  0.0000000000D+00
  0.3854000000D+01  0.0000000000D+00
  0.1046000000D+01  0.0000000000D+00
  0.2753000000D+00  0.1000000000D+01
 d    1  1.00
  0.1185000000D+01  0.1000000000D+01
 
 
[MO]
 Sym=      1.1
 Ene=     -20.5692
 Spin= Alpha
 Occup=    2.000000
1 0.000467104714785
2 0.000237628419419
3 0.0
4 -0.000180732709565
5 0.000219161184445
6 0.000467104714785
7 0.000237628419419
8 0.0
9 0.000180732709565
10 0.000219161184445
11 1.00024541697946
12 0.001287446137615
13 -0.001491862804484
14 0.0
15 0.0
16 0.002086767458209
17 0.0
18 0.0
19 -0.001784262862822
20 0.000124611782552
21 -0.000077806558466
22 -0.000046805224086
23 0.0
24 0.0
25 0.0
 Sym=      2.1
 Ene=      -1.2772
 Spin= Alpha
 Occup=    2.000000
1 0.24185630792768
2 -0.10724205133913
3 0.0
4 0.027854672809144
5 -0.014958308895589
6 0.24185630792768
7 -0.10724205133913
8 0.0
9 -0.027854672809144
10 -0.014958308895589
11 -0.005832694174153
12 0.89517704228900
13 -0.054026101147857
14 0.0
15 0.0
16 0.076780948340500
17 0.0
18 0.0
19 -0.030574867855495
20 -0.003052818674438
21 0.002330352292488
22 0.000722466381950
23 0.0
24 0.0
25 0.0
 Sym=      1.3
 Ene=      -0.6416
 Spin= Alpha
 Occup=    2.000000
1 -0.51793994472174
2 0.14681481454945
3 0.0
4 -0.025627384113951
5 0.028202634402489
6 0.51793994472174
7 -0.14681481454945
8 0.0
9 -0.025627384113951
10 -0.028202634402489
11 0.0
12 0.0
13 0.0
14 0.0
15 0.68738348125700
16 0.0
17 0.0
18 -0.064675633613971
19 0.0
20 0.0
21 0.0
22 0.0
23 0.0
24 0.0
25 0.022663036920417
 Sym=      3.1
 Ene=      -0.5331
 Spin= Alpha
 Occup=    2.000000
1 0.33891613115943
2 -0.10035633701629
3 0.0
4 0.027082085390779
5 0.005564508596698
6 0.33891613115943
7 -0.10035633701629
8 0.0
9 -0.027082085390779
10 0.005564508596698
11 0.001130976601677
12 -0.26499694164567
13 -0.13898201040578
14 0.0
15 0.0
16 0.78450868243132
17 0.0
18 0.0
19 0.029201564651400
20 -0.012516943334379
21 -0.003124954045350
22 0.015641897379729
23 0.0
24 0.0
25 0.0
 Sym=      1.2
 Ene=      -0.4842
 Spin= Alpha
 Occup=    2.000000
1 0.0
2 0.0
3 0.025553513533830
4 0.0
5 0.0
6 0.0
7 0.0
8 0.025553513533830
9 0.0
10 0.0
11 0.0
12 0.0
13 0.0
14 0.92648349745092
15 0.0
16 0.0
17 0.073560369468828
18 0.0
19 0.0
20 0.0
21 0.0
22 0.0
23 0.0
24 0.015876948039793
25 0.0
 Sym=      4.1
 Ene=       0.1592
 Spin= Alpha
 Occup=    0.000000
1 0.17262743131475
2 0.67654027722733
3 0.0
4 0.003999981869541
5 -0.009879915359080
6 0.17262743131475
7 0.67654027722733
8 0.0
9 -0.003999981869541
10 -0.009879915359080
11 0.047030383633213
12 -0.16333702317370
13 -0.77145436558324
14 0.0
15 0.0
16 -0.34239400095233
17 0.0
18 0.0
19 -0.21189977011409
20 0.005524673520798
21 0.001107167979729
22 -0.006631841500527
23 0.0
24 0.0
25 0.0
 Sym=      2.3
 Ene=       0.2327
 Spin= Alpha
 Occup=    0.000000
1 0.10080197620682
2 1.13782274446379
3 0.0
4 0.011319164965182
5 -0.004392971102307
6 -0.10080197620682
7 -1.13782274446379
8 0.0
9 0.011319164965182
10 0.004392971102307
11 0.0
12 0.0
13 0.0
14 0.0
15 0.46962323686518
16 0.0
17 0.0
18 0.44861956286878
19 0.0
20 0.0
21 0.0
22 0.0
23 0.0
24 0.0
25 0.011447295629979
 Sym=      3.3
 Ene=       0.7252
 Spin= Alpha
 Occup=    0.000000
1 -1.58533251255503
2 1.62878148713316
3 0.0
4 0.044291285855151
5 -0.12385775772983
6 1.58533251255503
7 -1.62878148713316
8 0.0
9 0.044291285855151
10 0.12385775772983
11 0.0
12 0.0
13 0.0
14 0.0
15 -0.44178049832563
16 0.0
17 0.0
18 -0.044423782734728
19 0.0
20 0.0
21 0.0
22 0.0
23 0.0
24 0.0
25 0.093768261765352
 Sym=      5.1
 Ene=       0.7309
 Spin= Alpha
 Occup=    0.000000
1 -1.50063069604514
2 1.39180796835005
3 0.0
4 0.18724910639410
5 -0.019611467533615
6 -1.50063069604514
7 1.39180796835005
8 0.0
9 -0.18724910639410
10 -0.019611467533615
11 0.072336361161645
12 0.47014267013081
13 -0.57702436627969
14 0.0
15 0.0
16 0.41199283152563
17 0.0
18 0.0
19 -0.11994346967512
20 0.067860353853346
21 -0.078830879480285
22 0.010970525626939
23 0.0
24 0.0
25 0.0
 Sym=      6.1
 Ene=       1.1687
 Spin= Alpha
 Occup=    0.000000
1 -0.52403939286790
2 0.14824420213266
3 0.0
4 -0.052877202321371
5 0.29862683885613
6 -0.52403939286790
7 0.14824420213266
8 0.0
9 0.052877202321371
10 0.29862683885613
11 0.003618487318769
12 0.19610381746784
13 0.31752814466902
14 0.0
15 0.0
16 -1.16586989321409
17 0.0
18 0.0
19 1.61352739444033
20 -0.000302462386237
21 -0.025540129409775
22 0.025842591796012
23 0.0
24 0.0
25 0.0
 Sym=      2.2
 Ene=       1.1904
 Spin= Alpha
 Occup=    0.000000
1 0.0
2 0.0
3 0.11754138816504
4 0.0
5 0.0
6 0.0
7 0.0
8 0.11754138816504
9 0.0
10 0.0
11 0.0
12 0.0
13 0.0
14 -1.38094164791063
15 0.0
16 0.0
17 1.57287494191550
18 0.0
19 0.0
20 0.0
21 0.0
22 0.0
23 0.0
24 0.007141602509950
25 0.0
 Sym=      4.3
 Ene=       1.2593
 Spin= Alpha
 Occup=    0.000000
1 0.52486095992605
2 0.35816413446237
3 0.0
4 0.35992852464643
5 -0.064646124921652
6 -0.52486095992605
7 -0.35816413446237
8 0.0
9 0.35992852464643
10 0.064646124921652
11 0.0
12 0.0
13 0.0
14 0.0
15 -1.10800749329749
16 0.0
17 0.0
18 2.10406629153709
19 0.0
20 0.0
21 0.0
22 0.0
23 0.0
24 0.0
25 -0.004536807443175
 Sym=      1.4
 Ene=       1.4394
 Spin= Alpha
 Occup=    0.000000
1 0.0
2 0.0
3 0.67797423065115
4 0.0
5 0.0
6 0.0
7 0.0
8 -0.67797423065115
9 0.0
10 0.0
11 0.0
12 0.0
13 0.0
14 0.0
15 0.0
16 0.0
17 0.0
18 0.0
19 0.0
20 0.0
21 0.0
22 0.0
23 -0.14439958704308
24 0.0
25 0.0
 Sym=      7.1
 Ene=       1.5128
 Spin= Alpha
 Occup=    0.000000
1 0.39370351385951
2 -0.40356672897709
3 0.0
4 0.31474111642710
5 0.51215180950352
6 0.39370351385951
7 -0.40356672897709
8 0.0
9 -0.31474111642710
10 0.51215180950352
11 -0.27896612415672
12 -1.36194242985498
13 1.52600812490797
14 0.0
15 0.0
16 0.38834799115437
17 0.0
18 0.0
19 -0.85348860430838
20 -0.037179397190894
21 -0.10238733539611
22 0.13956673258700
23 0.0
24 0.0
25 0.0
 Sym=      3.2
 Ene=       1.6793
 Spin= Alpha
 Occup=    0.000000
1 0.0
2 0.0
3 0.74244133984757
4 0.0
5 0.0
6 0.0
7 0.0
8 0.74244133984757
9 0.0
10 0.0
11 0.0
12 0.0
13 0.0
14 0.27723414626034
15 0.0
16 0.0
17 -0.81576981004674
18 0.0
19 0.0
20 0.0
21 0.0
22 0.0
23 0.0
24 0.15866065935598
25 0.0
 Sym=      5.3
 Ene=       1.7915
 Spin= Alpha
 Occup=    0.000000
1 -0.67166839297589
2 0.22585590422399
3 0.0
4 0.37220766385475
5 0.66153389999843
6 0.67166839297589
7 -0.22585590422399
8 0.0
9 0.37220766385475
10 -0.66153389999843
11 0.0
12 0.0
13 0.0
14 0.0
15 0.34602312333908
16 0.0
17 0.0
18 -1.16789650102551
19 0.0
20 0.0
21 0.0
22 0.0
23 0.0
24 0.0
25 0.018829332195459
 Sym=      8.1
 Ene=       1.8975
 Spin= Alpha
 Occup=    0.000000
1 -0.92844219002015
2 0.16856910111402
3 0.0
4 -0.24393842286946
5 -0.18127359331402
6 -0.92844219002015
7 0.16856910111402
8 0.0
9 0.24393842286946
10 -0.18127359331402
11 -0.72587934536019
12 -3.22751912070849
13 4.23504508816767
14 0.0
15 0.0
16 -0.30089737813111
17 0.0
18 0.0
19 1.01214032720166
20 0.14169450988746
21 -0.021099601107317
22 -0.12059490878014
23 0.0
24 0.0
25 0.0
 Sym=      6.3
 Ene=       2.1796
 Spin= Alpha
 Occup=    0.000000
1 0.24910281234934
2 0.21526119147984
3 0.0
4 0.63582467830759
5 -0.53801700129468
6 -0.24910281234934
7 -0.21526119147984
8 0.0
9 0.63582467830759
10 0.53801700129468
11 0.0
12 0.0
13 0.0
14 0.0
15 0.98513733614130
16 0.0
17 0.0
18 -0.20877999922224
19 0.0
20 0.0
21 0.0
22 0.0
23 0.0
24 0.0
25 -0.11675344608015
 Sym=      9.1
 Ene=       2.2145
 Spin= Alpha
 Occup=    0.000000
1 0.73507294543462
2 -0.11321242531469
3 0.0
4 0.81459287867455
5 -0.42224384211862
6 0.73507294543462
7 -0.11321242531469
8 0.0
9 -0.81459287867455
10 -0.42224384211862
11 0.071173832842733
12 -0.022976158483428
13 -1.31402195981262
14 0.0
15 0.0
16 -0.69465962838671
17 0.0
18 0.0
19 -0.079503107009828
20 -0.21250593292471
21 0.13470630879088
22 0.077799624133839
23 0.0
24 0.0
25 0.0
 Sym=      4.2
 Ene=       3.1608
 Spin= Alpha
 Occup=    0.000000
1 0.0
2 0.0
3 -0.29171685341245
4 0.0
5 0.0
6 0.0
7 0.0
8 -0.29171685341245
9 0.0
10 0.0
11 0.0
12 0.0
13 0.0
14 -0.071868735401158
15 0.0
16 0.0
17 0.24700211905054
18 0.0
19 0.0
20 0.0
21 0.0
22 0.0
23 0.0
24 1.01096671963824
25 0.0
 Sym=      2.4
 Ene=       3.2339
 Spin= Alpha
 Occup=    0.000000
1 0.0
2 0.0
3 0.29911739145033
4 0.0
5 0.0
6 0.0
7 0.0
8 -0.29911739145033
9 0.0
10 0.0
11 0.0
12 0.0
13 0.0
14 0.0
15 0.0
16 0.0
17 0.0
18 0.0
19 0.0
20 0.0
21 0.0
22 0.0
23 1.02929291265646
24 0.0
25 0.0
 Sym=     10.1
 Ene=       3.3114
 Spin= Alpha
 Occup=    0.000000
1 -0.36534499458438
2 0.14317000402536
3 0.0
4 -0.31019662087027
5 -0.24021813306146
6 -0.36534499458438
7 0.14317000402536
8 0.0
9 0.31019662087027
10 -0.24021813306146
11 -0.084825076966975
12 -0.30944638981008
13 0.62462088447085
14 0.0
15 0.0
16 -0.048515721329196
17 0.0
18 0.0
19 0.43441009601942
20 -0.47806043680136
21 -0.54877638707298
22 1.02683682387434
23 0.0
24 0.0
25 0.0
 Sym=     11.1
 Ene=       3.7670
 Spin= Alpha
 Occup=    0.000000
1 1.38092154788909
2 -0.50949812659436
3 0.0
4 0.56830035833628
5 -0.41251631263645
6 1.38092154788909
7 -0.50949812659436
8 0.0
9 -0.56830035833628
10 -0.41251631263645
11 0.27077013599743
12 0.89361766540920
13 -2.30580373656205
14 0.0
15 0.0
16 -0.27796532349830
17 0.0
18 0.0
19 -0.58486461399528
20 0.98480098875152
21 -0.98101197347070
22 -0.003789015280814
23 0.0
24 0.0
25 0.0
 Sym=      7.3
 Ene=       3.9736
 Spin= Alpha
 Occup=    0.000000
1 1.24045437688066
2 -0.36915007057688
3 0.0
4 0.53298898259801
5 -0.40326160921051
6 -1.24045437688066
7 0.36915007057688
8 0.0
9 0.53298898259801
10 0.40326160921051
11 0.0
12 0.0
13 0.0
14 0.0
15 0.31520258632044
16 0.0
17 0.0
18 0.86222337998949
19 0.0
20 0.0
21 0.0
22 0.0
23 0.0
24 0.0
25 1.24029840141274
