 Entering Gaussian System, Link 0=g09
 Initial command:
 /usr/remote/Gaussian//g09/l1.exe /opt/g09_scratch/vincpohl.20869/Gau-20971.inp -scrdir=/opt/g09_scratch/vincpohl.20869/
 Entering Link 1 = /usr/remote/Gaussian//g09/l1.exe PID=     20973.
  
 Copyright (c) 1988,1990,1992,1993,1995,1998,2003,2009, Gaussian, Inc.
                  All Rights Reserved.
  
 This is part of the Gaussian(R) 09 program.  It is based on
 the Gaussian(R) 03 system (copyright 2003, Gaussian, Inc.),
 the Gaussian(R) 98 system (copyright 1998, Gaussian, Inc.),
 the Gaussian(R) 94 system (copyright 1995, Gaussian, Inc.),
 the Gaussian 92(TM) system (copyright 1992, Gaussian, Inc.),
 the Gaussian 90(TM) system (copyright 1990, Gaussian, Inc.),
 the Gaussian 88(TM) system (copyright 1988, Gaussian, Inc.),
 the Gaussian 86(TM) system (copyright 1986, Carnegie Mellon
 University), and the Gaussian 82(TM) system (copyright 1983,
 Carnegie Mellon University). Gaussian is a federally registered
 trademark of Gaussian, Inc.
  
 This software contains proprietary and confidential information,
 including trade secrets, belonging to Gaussian, Inc.
  
 This software is provided under written license and may be
 used, copied, transmitted, or stored only in accord with that
 written license.
  
 The following legend is applicable only to US Government
 contracts under FAR:
  
                    RESTRICTED RIGHTS LEGEND
  
 Use, reproduction and disclosure by the US Government is
 subject to restrictions as set forth in subparagraphs (a)
 and (c) of the Commercial Computer Software - Restricted
 Rights clause in FAR 52.227-19.
  
 Gaussian, Inc.
 340 Quinnipiac St., Bldg. 40, Wallingford CT 06492
  
  
 ---------------------------------------------------------------
 Warning -- This program may not be used in any manner that
 competes with the business of Gaussian, Inc. or will provide
 assistance to any competitor of Gaussian, Inc.  The licensee
 of this program is prohibited from giving any competitor of
 Gaussian, Inc. access to this program.  By using this program,
 the user acknowledges that Gaussian, Inc. is engaged in the
 business of creating and licensing software in the field of
 computational chemistry and represents and warrants to the
 licensee that it is not a competitor of Gaussian, Inc. and that
 it will not use this program in any manner prohibited above.
 ---------------------------------------------------------------
  

 Cite this work as:
 Gaussian 09, Revision A.02,
 M. J. Frisch, G. W. Trucks, H. B. Schlegel, G. E. Scuseria, 
 M. A. Robb, J. R. Cheeseman, G. Scalmani, V. Barone, B. Mennucci, 
 G. A. Petersson, H. Nakatsuji, M. Caricato, X. Li, H. P. Hratchian, 
 A. F. Izmaylov, J. Bloino, G. Zheng, J. L. Sonnenberg, M. Hada, 
 M. Ehara, K. Toyota, R. Fukuda, J. Hasegawa, M. Ishida, T. Nakajima, 
 Y. Honda, O. Kitao, H. Nakai, T. Vreven, J. A. Montgomery, Jr., 
 J. E. Peralta, F. Ogliaro, M. Bearpark, J. J. Heyd, E. Brothers, 
 K. N. Kudin, V. N. Staroverov, R. Kobayashi, J. Normand, 
 K. Raghavachari, A. Rendell, J. C. Burant, S. S. Iyengar, J. Tomasi, 
 M. Cossi, N. Rega, J. M. Millam, M. Klene, J. E. Knox, J. B. Cross, 
 V. Bakken, C. Adamo, J. Jaramillo, R. Gomperts, R. E. Stratmann, 
 O. Yazyev, A. J. Austin, R. Cammi, C. Pomelli, J. W. Ochterski, 
 R. L. Martin, K. Morokuma, V. G. Zakrzewski, G. A. Voth, 
 P. Salvador, J. J. Dannenberg, S. Dapprich, A. D. Daniels, 
 O. Farkas, J. B. Foresman, J. V. Ortiz, J. Cioslowski, 
 and D. J. Fox, Gaussian, Inc., Wallingford CT, 2009.
 
 ******************************************
 Gaussian 09:  AM64L-G09RevA.02 11-Jun-2009
                28-Sep-2015 
 ******************************************
 %NProcShared=2
 Will use up to    2 processors via shared memory.
 %Chk=h2o_rhf_cart
 ----------------------------------------
 #n RHF/cc-pVDZ gfinput IOP(6/7=3) 6D 10F
 ----------------------------------------
 1/38=1/1;
 2/12=2,17=6,18=5,40=1/2;
 3/5=16,8=22,11=1,16=1,24=10,25=1,30=1,116=1/1,2,3;
 4//1;
 5/5=2,38=5/2;
 6/7=3,8=2,9=2,10=2,28=1/1;
 99/5=1,9=1/99;
 ---------------
 RHF/cc-pVDZ H2O
 ---------------
 Symbolic Z-matrix:
 Charge =  0 Multiplicity = 1
 H                     0.       -0.89014   0.55869 
 O                     0.        0.       -0.07039 
 H                     0.        0.89014   0.55869 
 
                          Input orientation:                          
 ---------------------------------------------------------------------
 Center     Atomic      Atomic             Coordinates (Angstroms)
 Number     Number       Type             X           Y           Z
 ---------------------------------------------------------------------
      1          1           0        0.000000   -0.890139    0.558694
      2          8           0        0.000000    0.000000   -0.070394
      3          1           0        0.000000    0.890139    0.558694
 ---------------------------------------------------------------------
                    Distance matrix (angstroms):
                    1          2          3
     1  H    0.000000
     2  O    1.090000   0.000000
     3  H    1.780279   1.090000   0.000000
 Stoichiometry    H2O
 Framework group  C2V[C2(O),SGV(H2)]
 Deg. of freedom     2
 Full point group                 C2V     NOp   4
 Largest Abelian subgroup         C2V     NOp   4
 Largest concise Abelian subgroup C2      NOp   2
                         Standard orientation:                         
 ---------------------------------------------------------------------
 Center     Atomic      Atomic             Coordinates (Angstroms)
 Number     Number       Type             X           Y           Z
 ---------------------------------------------------------------------
      1          1           0        0.000000    0.890139   -0.503271
      2          8           0        0.000000    0.000000    0.125818
      3          1           0        0.000000   -0.890139   -0.503271
 ---------------------------------------------------------------------
 Rotational constants (GHZ):    713.3855425    316.4361636    219.2039485
 Standard basis: CC-pVDZ (6D, 10F)
 AO basis set in the form of general basis input (Overlap normalization):
      1 0
 S   3 1.00       0.000000000000
      0.1301000000D+02  0.3349872639D-01
      0.1962000000D+01  0.2348008012D+00
      0.4446000000D+00  0.8136829579D+00
 S   1 1.00       0.000000000000
      0.1220000000D+00  0.1000000000D+01
 P   1 1.00       0.000000000000
      0.7270000000D+00  0.1000000000D+01
 ****
      2 0
 S   7 1.00       0.000000000000
      0.1172000000D+05  0.7118644339D-03
      0.1759000000D+04  0.5485201992D-02
      0.4008000000D+03  0.2790992963D-01
      0.1137000000D+03  0.1051332075D+00
      0.3703000000D+02  0.2840024898D+00
      0.1327000000D+02  0.4516739459D+00
      0.5025000000D+01  0.2732081255D+00
 S   7 1.00       0.000000000000
      0.1172000000D+05  0.7690300460D-05
      0.4008000000D+03  0.3134845790D-03
      0.1137000000D+03 -0.2966148530D-02
      0.3703000000D+02 -0.1087535430D-01
      0.1327000000D+02 -0.1207538168D+00
      0.5025000000D+01 -0.1062752639D+00
      0.1013000000D+01  0.1095975478D+01
 S   1 1.00       0.000000000000
      0.3023000000D+00  0.1000000000D+01
 P   3 1.00       0.000000000000
      0.1770000000D+02  0.6267916628D-01
      0.3854000000D+01  0.3335365659D+00
      0.1046000000D+01  0.7412396416D+00
 P   1 1.00       0.000000000000
      0.2753000000D+00  0.1000000000D+01
 D   1 1.00       0.000000000000
      0.1185000000D+01  0.1000000000D+01
 ****
      3 0
 S   3 1.00       0.000000000000
      0.1301000000D+02  0.3349872639D-01
      0.1962000000D+01  0.2348008012D+00
      0.4446000000D+00  0.8136829579D+00
 S   1 1.00       0.000000000000
      0.1220000000D+00  0.1000000000D+01
 P   1 1.00       0.000000000000
      0.7270000000D+00  0.1000000000D+01
 ****

 There are    12 symmetry adapted basis functions of A1  symmetry.
 There are     2 symmetry adapted basis functions of A2  symmetry.
 There are     4 symmetry adapted basis functions of B1  symmetry.
 There are     7 symmetry adapted basis functions of B2  symmetry.
 Integral buffers will be    131072 words long.
 Raffenetti 1 integral format.
 Two-electron integral symmetry is turned on.
    25 basis functions,    47 primitive gaussians,    25 cartesian basis functions
     5 alpha electrons        5 beta electrons
       nuclear repulsion energy         8.0649828866 Hartrees.
 NAtoms=    3 NActive=    3 NUniq=    2 SFac= 1.69D+00 NAtFMM=   80 NAOKFM=F Big=F
 One-electron integrals computed using PRISM.
 NBasis=    25 RedAO= T  NBF=    12     2     4     7
 NBsUse=    25 1.00D-06 NBFU=    12     2     4     7
 Harris functional with IExCor=  205 diagonalized for initial guess.
 ExpMin= 1.22D-01 ExpMax= 1.17D+04 ExpMxC= 4.01D+02 IAcc=1 IRadAn=         1 AccDes= 0.00D+00
 HarFok:  IExCor=  205 AccDes= 0.00D+00 IRadAn=         1 IDoV= 1
 ScaDFX=  1.000000  1.000000  1.000000  1.000000
 FoFCou: FMM=F IPFlag=           0 FMFlag=      100000 FMFlg1=           0
         NFxFlg=           0 DoJE=T BraDBF=F KetDBF=T FulRan=T
         Omega=  0.000000  0.000000  1.000000  0.000000  0.000000 ICntrl=     500 IOpCl=  0
         NMat0=    1 NMatS0=    1 NMatT0=    0 NMatD0=    1 NMtDS0=    0 NMtDT0=    0
         I1Cent=           4 NGrid=           0.
 Petite list used in FoFCou.
 Initial guess orbital symmetries:
       Occupied  (A1) (A1) (B2) (A1) (B1)
       Virtual   (A1) (B2) (B2) (A1) (B1) (A1) (B2) (A2) (A1) (B1)
                 (A1) (B2) (B2) (A1) (B1) (A2) (A1) (A1) (B2) (A1)
 The electronic state of the initial guess is 1-A1.
 Requested convergence on RMS density matrix=1.00D-08 within 128 cycles.
 Requested convergence on MAX density matrix=1.00D-06.
 Requested convergence on             energy=1.00D-06.
 No special actions if energy rises.
 Keep R1 ints in memory in canonical form, NReq=893414.
 SCF Done:  E(RHF) =  -75.9923999208     A.U. after   10 cycles
             Convg  =    0.6995D-08             -V/T =  2.0060

 **********************************************************************

            Population analysis using the SCF density.

 **********************************************************************

 Orbital symmetries:
       Occupied  (A1) (A1) (B2) (A1) (B1)
       Virtual   (A1) (B2) (B2) (A1) (A1) (B1) (B2) (A2) (A1) (B1)
                 (A1) (B2) (B2) (A1) (B1) (A2) (A1) (A1) (B2) (A1)
 The electronic state is 1-A1.
 Alpha  occ. eigenvalues --  -20.57047  -1.27755  -0.64198  -0.53342  -0.48462
 Alpha virt. eigenvalues --    0.15692   0.23251   0.72504   0.73058   1.16601
 Alpha virt. eigenvalues --    1.19007   1.25903   1.43917   1.46990   1.67902
 Alpha virt. eigenvalues --    1.76909   1.79130   2.17934   2.21405   3.16039
 Alpha virt. eigenvalues --    3.23351   3.31071   3.76100   3.97331   5.85823
     Molecular Orbital Coefficients:
                           1         2         3         4         5
                        (A1)--O   (A1)--O   (B2)--O   (A1)--O   (B1)--O
     Eigenvalues --   -20.57047  -1.27755  -0.64198  -0.53342  -0.48462
   1 1   H  1S          0.00020   0.14240   0.30430  -0.20035   0.00000
   2        2S          0.00025   0.01465   0.11275  -0.07246   0.00000
   3        3PX         0.00000   0.00000   0.00000   0.00000   0.02553
   4        3PY         0.00014  -0.02781  -0.02564   0.02691   0.00000
   5        3PZ        -0.00016   0.01487   0.02819   0.00583   0.00000
   6 2   O  1S          0.99685  -0.21131   0.00000  -0.06437   0.00000
   7        2S          0.01576   0.45398   0.00000   0.13817   0.00000
   8        3S         -0.00153   0.45410   0.00000   0.30860   0.00000
   9        4PX         0.00000   0.00000   0.00000   0.00000   0.63597
  10        4PY         0.00000   0.00000   0.47192   0.00000   0.00000
  11        4PZ        -0.00138  -0.05276   0.00000   0.53856   0.00000
  12        5PX         0.00000   0.00000   0.00000   0.00000   0.50013
  13        5PY         0.00000   0.00000   0.25186   0.00000   0.00000
  14        5PZ         0.00065  -0.00421   0.00000   0.38833   0.00000
  15        6XX        -0.00101  -0.00085   0.00000   0.00479   0.00000
  16        6YY        -0.00122   0.00454   0.00000  -0.00473   0.00000
  17        6ZZ        -0.00117   0.00291   0.00000  -0.02336   0.00000
  18        6XY         0.00000   0.00000   0.00000   0.00000   0.00000
  19        6XZ         0.00000   0.00000   0.00000   0.00000  -0.01585
  20        6YZ         0.00000   0.00000  -0.02265   0.00000   0.00000
  21 3   H  1S          0.00020   0.14240  -0.30430  -0.20035   0.00000
  22        2S          0.00025   0.01465  -0.11275  -0.07246   0.00000
  23        3PX         0.00000   0.00000   0.00000   0.00000   0.02553
  24        3PY        -0.00014   0.02781  -0.02564  -0.02691   0.00000
  25        3PZ        -0.00016   0.01487  -0.02819   0.00583   0.00000
                           6         7         8         9        10
                        (A1)--V   (B2)--V   (B2)--V   (A1)--V   (A1)--V
     Eigenvalues --     0.15692   0.23251   0.72504   0.73058   1.16601
   1 1   H  1S         -0.10511   0.05953   0.93163   0.87989   0.29502
   2        2S         -0.77266   1.18810  -0.83442  -0.64260   0.09665
   3        3PX         0.00000   0.00000   0.00000   0.00000   0.00000
   4        3PY         0.00342  -0.01131   0.04423   0.18679  -0.05681
   5        3PZ        -0.00892   0.00435  -0.12384  -0.01942   0.29134
   6 2   O  1S         -0.09259   0.00000   0.00000   0.03331   0.03195
   7        2S          0.09074   0.00000   0.00000  -0.24056  -0.12853
   8        3S          0.93556   0.00000   0.00000   0.33729  -0.28617
   9        4PX         0.00000   0.00000   0.00000   0.00000   0.00000
  10        4PY         0.00000  -0.32238  -0.30301   0.00000   0.00000
  11        4PZ        -0.23437   0.00000   0.00000   0.28250  -0.79858
  12        5PX         0.00000   0.00000   0.00000   0.00000   0.00000
  13        5PY         0.00000  -0.66487  -0.24783   0.00000   0.00000
  14        5PZ        -0.37678   0.00000   0.00000   0.06831   1.06437
  15        6XX        -0.03510   0.00000   0.00000  -0.07875  -0.03700
  16        6YY        -0.03111   0.00000   0.00000   0.06751  -0.01602
  17        6ZZ        -0.02305   0.00000   0.00000  -0.02203  -0.06328
  18        6XY         0.00000   0.00000   0.00000   0.00000   0.00000
  19        6XZ         0.00000   0.00000   0.00000   0.00000   0.00000
  20        6YZ         0.00000   0.01141  -0.09380   0.00000   0.00000
  21 3   H  1S         -0.10511  -0.05953  -0.93163   0.87989   0.29502
  22        2S         -0.77266  -1.18810   0.83442  -0.64260   0.09665
  23        3PX         0.00000   0.00000   0.00000   0.00000   0.00000
  24        3PY        -0.00342  -0.01131   0.04423  -0.18679   0.05681
  25        3PZ        -0.00892  -0.00435   0.12384  -0.01942   0.29134
                          11        12        13        14        15
                        (B1)--V   (B2)--V   (A2)--V   (A1)--V   (B1)--V
     Eigenvalues --     1.19007   1.25903   1.43917   1.46990   1.67902
   1 1   H  1S          0.00000  -0.30832   0.00000   0.08657   0.00000
   2        2S          0.00000  -0.62135   0.00000  -0.28743   0.00000
   3        3PX        -0.11740   0.00000   0.67796   0.00000   0.74245
   4        3PY         0.00000   0.35982   0.00000  -0.26262   0.00000
   5        3PZ         0.00000  -0.06469   0.00000  -0.46053   0.00000
   6 2   O  1S          0.00000   0.00000   0.00000  -0.01228   0.00000
   7        2S          0.00000   0.00000   0.00000  -0.85749   0.00000
   8        3S          0.00000   0.00000   0.00000   1.49196   0.00000
   9        4PX         0.94773   0.00000   0.00000   0.00000   0.19009
  10        4PY         0.00000  -0.76051   0.00000   0.00000   0.00000
  11        4PZ         0.00000   0.00000   0.00000  -0.17613   0.00000
  12        5PX        -0.93710   0.00000   0.00000   0.00000  -0.68788
  13        5PY         0.00000   1.59389   0.00000   0.00000   0.00000
  14        5PZ         0.00000   0.00000   0.00000   0.41078   0.00000
  15        6XX         0.00000   0.00000   0.00000  -0.18689   0.00000
  16        6YY         0.00000   0.00000   0.00000  -0.27354   0.00000
  17        6ZZ         0.00000   0.00000   0.00000  -0.05728   0.00000
  18        6XY         0.00000   0.00000   0.14443   0.00000   0.00000
  19        6XZ         0.00709   0.00000   0.00000   0.00000  -0.15871
  20        6YZ         0.00000   0.00455   0.00000   0.00000   0.00000
  21 3   H  1S          0.00000   0.30832   0.00000   0.08657   0.00000
  22        2S          0.00000   0.62135   0.00000  -0.28743   0.00000
  23        3PX        -0.11740   0.00000  -0.67796   0.00000   0.74245
  24        3PY         0.00000   0.35982   0.00000   0.26262   0.00000
  25        3PZ         0.00000   0.06469   0.00000  -0.46053   0.00000
                          16        17        18        19        20
                        (A1)--V   (B2)--V   (B2)--V   (A1)--V   (B1)--V
     Eigenvalues --     1.76909   1.79130   2.17934   2.21405   3.16039
   1 1   H  1S         -0.60091  -0.39465  -0.14634  -0.43865   0.00000
   2        2S         -0.27408  -0.11075  -0.34017  -0.25899   0.00000
   3        3PX         0.00000   0.00000   0.00000   0.00000   0.29175
   4        3PY         0.29007  -0.37226   0.63583   0.81739   0.00000
   5        3PZ         0.29747  -0.66152  -0.53801  -0.42118   0.00000
   6 2   O  1S         -0.05892   0.00000   0.00000  -0.07281   0.00000
   7        2S         -1.21002   0.00000   0.00000  -0.02785   0.00000
   8        3S          2.49593   0.00000   0.00000   1.35173   0.00000
   9        4PX         0.00000   0.00000   0.00000   0.00000   0.04934
  10        4PY         0.00000  -0.23739   0.67602   0.00000   0.00000
  11        4PZ         0.29682   0.00000   0.00000  -0.47523   0.00000
  12        5PX         0.00000   0.00000   0.00000   0.00000  -0.21397
  13        5PY         0.00000   1.00833   0.24494   0.00000   0.00000
  14        5PZ        -1.05228   0.00000   0.00000  -0.40868   0.00000
  15        6XX        -0.10985   0.00000   0.00000   0.22562   0.00000
  16        6YY        -0.23199   0.00000   0.00000  -0.12540   0.00000
  17        6ZZ        -0.38150   0.00000   0.00000  -0.06930   0.00000
  18        6XY         0.00000   0.00000   0.00000   0.00000   0.00000
  19        6XZ         0.00000   0.00000   0.00000   0.00000   1.01096
  20        6YZ         0.00000   0.01885   0.11681   0.00000   0.00000
  21 3   H  1S         -0.60091   0.39465   0.14634  -0.43865   0.00000
  22        2S         -0.27408   0.11075   0.34017  -0.25899   0.00000
  23        3PX         0.00000   0.00000   0.00000   0.00000   0.29175
  24        3PY        -0.29007  -0.37226   0.63583  -0.81739   0.00000
  25        3PZ         0.29747   0.66152   0.53801  -0.42118   0.00000
                          21        22        23        24        25
                        (A2)--V   (A1)--V   (A1)--V   (B2)--V   (A1)--V
     Eigenvalues --     3.23351   3.31071   3.76100   3.97331   5.85823
   1 1   H  1S          0.00000  -0.21543  -0.80555   0.72897   0.04127
   2        2S          0.00000  -0.04114  -0.18766   0.25265  -0.17859
   3        3PX        -0.29914   0.00000   0.00000   0.00000   0.00000
   4        3PY         0.00000   0.31064   0.56190  -0.53302  -0.10731
   5        3PZ         0.00000   0.23969  -0.40957   0.40330   0.09206
   6 2   O  1S          0.00000  -0.01837  -0.08590   0.00000  -0.41824
   7        2S          0.00000  -0.13392  -0.35157   0.00000   1.70874
   8        3S          0.00000   0.46221   1.85035   0.00000   1.61826
   9        4PX         0.00000   0.00000   0.00000   0.00000   0.00000
  10        4PY         0.00000   0.00000   0.00000  -0.21634   0.00000
  11        4PZ         0.00000   0.03330  -0.18752   0.00000   0.08870
  12        5PX         0.00000   0.00000   0.00000   0.00000   0.00000
  13        5PY         0.00000   0.00000   0.00000  -1.00747   0.00000
  14        5PZ         0.00000  -0.41337  -0.71107   0.00000  -0.08234
  15        6XX         0.00000  -0.49741  -1.05685   0.00000  -1.40062
  16        6YY         0.00000  -0.56204   0.90891   0.00000  -1.48526
  17        6ZZ         0.00000   1.01115  -0.07081   0.00000  -1.42971
  18        6XY         1.02929   0.00000   0.00000   0.00000   0.00000
  19        6XZ         0.00000   0.00000   0.00000   0.00000   0.00000
  20        6YZ         0.00000   0.00000   0.00000   1.24029   0.00000
  21 3   H  1S          0.00000  -0.21543  -0.80555  -0.72897   0.04127
  22        2S          0.00000  -0.04114  -0.18766  -0.25265  -0.17859
  23        3PX         0.29914   0.00000   0.00000   0.00000   0.00000
  24        3PY         0.00000  -0.31064  -0.56190  -0.53302   0.10731
  25        3PZ         0.00000   0.23969  -0.40957  -0.40330   0.09206
          Condensed to atoms (all electrons):
              1          2          3
     1  H    0.489583   0.314726  -0.026677
     2  O    0.314726   7.815285   0.314726
     3  H   -0.026677   0.314726   0.489583
 Mulliken atomic charges:
              1
     1  H    0.222368
     2  O   -0.444736
     3  H    0.222368
 Sum of Mulliken atomic charges =   0.00000
 Mulliken charges with hydrogens summed into heavy atoms:
              1
     2  O    0.000000
 Sum of Mulliken charges with hydrogens summed into heavy atoms =   0.00000
 Electronic spatial extent (au):  <R**2>=             20.5537
 Charge=              0.0000 electrons
 Dipole moment (field-independent basis, Debye):
    X=              0.0000    Y=              0.0000    Z=             -2.0776  Tot=              2.0776
 Quadrupole moment (field-independent basis, Debye-Ang):
   XX=             -7.3349   YY=             -3.5728   ZZ=             -6.0847
   XY=              0.0000   XZ=              0.0000   YZ=              0.0000
 Traceless Quadrupole moment (field-independent basis, Debye-Ang):
   XX=             -1.6708   YY=              2.0913   ZZ=             -0.4206
   XY=              0.0000   XZ=              0.0000   YZ=              0.0000
 Octapole moment (field-independent basis, Debye-Ang**2):
  XXX=              0.0000  YYY=              0.0000  ZZZ=             -0.9897  XYY=              0.0000
  XXY=              0.0000  XXZ=             -0.1944  XZZ=              0.0000  YZZ=              0.0000
  YYZ=             -1.7550  XYZ=              0.0000
 Hexadecapole moment (field-independent basis, Debye-Ang**3):
 XXXX=             -5.2446 YYYY=             -6.3172 ZZZZ=             -6.6794 XXXY=              0.0000
 XXXZ=              0.0000 YYYX=              0.0000 YYYZ=              0.0000 ZZZX=              0.0000
 ZZZY=              0.0000 XXYY=             -2.4778 XXZZ=             -2.0582 YYZZ=             -1.6899
 XXYZ=              0.0000 YYXZ=              0.0000 ZZXY=              0.0000
 N-N= 8.064982886565D+00 E-N=-1.966387046849D+02  KE= 7.554004949880D+01
 Symmetry A1   KE= 6.777268983541D+01
 Symmetry A2   KE= 4.912457028913D-35
 Symmetry B1   KE= 4.590629983714D+00
 Symmetry B2   KE= 3.176729679675D+00
 Orbital energies and kinetic energies (alpha):
                                 1                 2
   1         (A1)--O         -20.570473         29.189282
   2         (A1)--O          -1.277554          2.641456
   3         (B2)--O          -0.641980          1.588365
   4         (A1)--O          -0.533424          2.055607
   5         (B1)--O          -0.484624          2.295315
   6         (A1)--V           0.156918          0.945040
   7         (B2)--V           0.232512          0.910486
   8         (B2)--V           0.725042          1.860844
   9         (A1)--V           0.730576          1.941200
  10         (A1)--V           1.166005          3.094882
  11         (B1)--V           1.190067          3.612374
  12         (B2)--V           1.259027          2.875987
  13         (A2)--V           1.439173          1.882111
  14         (A1)--V           1.469904          2.276365
  15         (B1)--V           1.679019          2.116166
  16         (A1)--V           1.769087          2.750347
  17         (B2)--V           1.791297          2.240858
  18         (B2)--V           2.179342          3.654278
  19         (A1)--V           2.214054          3.446776
  20         (B1)--V           3.160388          4.297720
  21         (A2)--V           3.233511          4.385670
  22         (A1)--V           3.310711          4.457244
  23         (A1)--V           3.760998          5.097288
  24         (B2)--V           3.973308          5.350224
  25         (A1)--V           5.858226         13.701371
 Total kinetic energy from orbitals= 7.554004949880D+01

 Test job not archived.
 1\1\GINC-POOL01\SP\RHF\CC-pVDZ\H2O1\VINCPOHL\28-Sep-2015\0\\#n RHF/cc-
 pVDZ gfinput IOP(6/7=3) 6D 10F\\RHF/cc-pVDZ H2O\\0,1\H,0,0.,-0.8901392
 951,0.5586943229\O,0,0.,0.,-0.0703939342\H,0,0.,0.8901392951,0.5586943
 229\\Version=AM64L-G09RevA.02\State=1-A1\HF=-75.9923999\RMSD=6.995e-09
 \Dipole=0.,0.,0.8173935\Quadrupole=-1.2421684,1.5548488,-0.3126804,0.,
 0.,0.\PG=C02V [C2(O1),SGV(H2)]\\@


 IT IS A QUALITY OF REVOLUTIONS NOT TO GO BY OLD LINES OR OLD LAWS,
 BUT TO BREAK UP BOTH, AND MAKE NEW ONES.
                                              -- A. LINCOLN (1848)
 Job cpu time:  0 days  0 hours  0 minutes  1.6 seconds.
 File lengths (MBytes):  RWF=      5 Int=      0 D2E=      0 Chk=      1 Scr=      1
 Normal termination of Gaussian 09 at Mon Sep 28 16:55:30 2015.
