----- GAMESS execution script 'rungms' -----
This job is running on host qcw09
under operating system Linux at Tue Aug 5 17:13:25 CEST 2014
Available scratch disk space (Kbyte units) at beginning of the job is
Filesystem           1K-blocks      Used Available Use% Mounted on
/dev/sda4             29906452   8429820  21476632  29% /scratch
GAMESS temporary binary files will be written to /scratch/jochen19/tmp
GAMESS supplementary output files will be written to /scratch/jochen19/tmp.formaldehyde.inp
Copying input file formaldehyde.inp to your run's scratch directory...
setenv MV2_USE_BLOCKING 1
setenv MV2_ENABLE_AFFINITY 0
unset echo
MPI kickoff will run GAMESS on 4 cores in 1 nodes.
The binary to be executed is /home/jctremblay/bin/Programs/gamess/gamess.00.x
MPI will run 4 compute processes and 4 data servers,
    placing 4 of each process type onto each node.
The scratch disk space on each node is /scratch/jochen19/tmp, with free space
Filesystem           1K-blocks      Used Available Use% Mounted on
/dev/sda4             29906452   8429896  21476556  29% /scratch
setenv HYDRA_ENV all
unset echo
mpiexec.hydra -f /scratch/jochen19/tmp/formaldehyde.processes.mpd -n 4 /home/jctremblay/bin/Programs/gamess/gamess.00.x
          ******************************************************
          *         GAMESS VERSION =  1 MAY 2013 (R1)          *
          *             FROM IOWA STATE UNIVERSITY             *
          * M.W.SCHMIDT, K.K.BALDRIDGE, J.A.BOATZ, S.T.ELBERT, *
          *   M.S.GORDON, J.H.JENSEN, S.KOSEKI, N.MATSUNAGA,   *
          *          K.A.NGUYEN, S.J.SU, T.L.WINDUS,           *
          *       TOGETHER WITH M.DUPUIS, J.A.MONTGOMERY       *
          *         J.COMPUT.CHEM.  14, 1347-1363(1993)        *
          **************** 64 BIT INTEL VERSION ****************

  SINCE 1993, STUDENTS AND POSTDOCS WORKING AT IOWA STATE UNIVERSITY
  AND ALSO IN THEIR VARIOUS JOBS AFTER LEAVING ISU HAVE MADE IMPORTANT
  CONTRIBUTIONS TO THE CODE:
     IVANA ADAMOVIC, CHRISTINE AIKENS, YURI ALEXEEV, POOJA ARORA,
     ANDREY ASADCHEV, ROB BELL, PRADIPTA BANDYOPADHYAY, JONATHAN BENTZ,
     BRETT BODE, GALINA CHABAN, WEI CHEN, CHEOL HO CHOI, PAUL DAY,
     ALBERT DEFUSCO, TIM DUDLEY, DMITRI FEDOROV, GRAHAM FLETCHER,
     MARK FREITAG, KURT GLAESEMANN, DAN KEMP, GRANT MERRILL,
     NORIYUKI MINEZAWA, JONATHAN MULLIN, TAKESHI NAGATA,
     SEAN NEDD, HEATHER NETZLOFF, BOSILJKA NJEGIC, RYAN OLSON, MIKE PAK,
     JIM SHOEMAKER, LYUDMILA SLIPCHENKO, SAROM SOK, JIE SONG,
     TETSUYA TAKETSUGU, SIMON WEBB, SOOHAENG YOO, FEDERICO ZAHARIEV

  ADDITIONAL CODE HAS BEEN PROVIDED BY COLLABORATORS IN OTHER GROUPS:
     IOWA STATE UNIVERSITY:
          JOE IVANIC, LAIMUTIS BYTAUTAS, KLAUS RUEDENBERG
     UNIVERSITY OF TOKYO: KIMIHIKO HIRAO, TAKAHITO NAKAJIMA,
          TAKAO TSUNEDA, MUNEAKI KAMIYA, SUSUMU YANAGISAWA,
          KIYOSHI YAGI, MAHITO CHIBA, SEIKEN TOKURA, NAOAKI KAWAKAMI
     UNIVERSITY OF AARHUS: FRANK JENSEN
     UNIVERSITY OF IOWA: VISVALDAS KAIRYS, HUI LI
     NATIONAL INST. OF STANDARDS AND TECHNOLOGY: WALT STEVENS, DAVID GARMER
     UNIVERSITY OF PISA: BENEDETTA MENNUCCI, JACOPO TOMASI
     UNIVERSITY OF MEMPHIS: HENRY KURTZ, PRAKASHAN KORAMBATH
     UNIVERSITY OF ALBERTA: TOBY ZENG, MARIUSZ KLOBUKOWSKI
     UNIVERSITY OF NEW ENGLAND: MARK SPACKMAN
     MIE UNIVERSITY: HIROAKI UMEDA
     MICHIGAN STATE UNIVERSITY:
          KAROL KOWALSKI, MARTA WLOCH, JEFFREY GOUR, JESSE LUTZ,
          WEI LI, PIOTR PIECUCH
     UNIVERSITY OF SILESIA: MONIKA MUSIAL, STANISLAW KUCHARSKI
     FACULTES UNIVERSITAIRES NOTRE-DAME DE LA PAIX:
          OLIVIER QUINET, BENOIT CHAMPAGNE
     UNIVERSITY OF CALIFORNIA - SANTA BARBARA: BERNARD KIRTMAN
     INSTITUTE FOR MOLECULAR SCIENCE:
          KAZUYA ISHIMURA, MICHIO KATOUDA, AND SHIGERU NAGASE
     UNIVERSITY OF NOTRE DAME: DAN CHIPMAN
     KYUSHU UNIVERSITY:
          HARUYUKI NAKANO,
          FENG LONG GU, JACEK KORCHOWIEC, MARCIN MAKOWSKI, AND YURIKO AOKI,
          HIROTOSHI MORI AND EISAKU MIYOSHI
     PENNSYLVANIA STATE UNIVERSITY:
          TZVETELIN IORDANOV, CHET SWALINA, JONATHAN SKONE,
          SHARON HAMMES-SCHIFFER
     WASEDA UNIVERSITY:
          MASATO KOBAYASHI, TOMOKO AKAMA, TSUGUKI TOUMA,
          TAKESHI YOSHIKAWA, YASUHIRO IKABATA, HIROMI NAKAI
     NANJING UNIVERSITY: SHUHUA LI
     UNIVERSITY OF NEBRASKA:
          PEIFENG SU, DEJUN SI, NANDUN THELLAMUREGE, YALI WANG, HUI LI
     UNIVERSITY OF ZURICH:
          ROBERTO PEVERATI, KIM BALDRIDGE
     N. COPERNICUS UNIVERSITY AND JACKSON STATE UNIVERSITY:
          MARIA BARYSZ


 PARALLEL VERSION RUNNING ON     2 PROCESSORS IN     1 NODES.

 EXECUTION OF GAMESS BEGUN Tue Aug  5 17:13:26 2014

            ECHO OF THE FIRST FEW INPUT CARDS -
 INPUT CARD> $CONTRL                                                                        
 INPUT CARD>  SCFTYP=RHF CITYP=CIS ICHARG=0 COORD=UNIQUE                                    
 INPUT CARD>  UNITS=ANGS ISPHER=1 $END                                                      
 INPUT CARD> $SCF DIRSCF=.TRUE. $END                                                        
 INPUT CARD> $SYSTEM MWORDS=200 $END                                                        
 INPUT CARD> $BASIS                                                                         
 INPUT CARD>  basnam(1)=bsC,bsO,bsH,bsH                                                     
 INPUT CARD> $END                                                                           
 INPUT CARD> $CIS NSTATE=20 NDAVIT=100 PRTTOL=0.0 IROOT=7 $END                              
 INPUT CARD> $ELDENS IEDEN=1 WHERE=GRID $END                                                
 INPUT CARD> $GRID MODGRD=0 ORIGIN(1)=0,0,0 XVEC(1)=1,0,0 YVEC(1)=0,1,0 $END                
 INPUT CARD> $DATA                                                                          
 INPUT CARD>formaldehyde                                                                    
 INPUT CARD>Cnv      2                                                                      
 INPUT CARD>                                                                                
 INPUT CARD>C    6.0    0.0000000000  0.0000000000  -0.5265526741                           
 INPUT CARD>O    8.0    0.0000000000  0.0000000000   0.6555124750                           
 INPUT CARD>H    1.0    0.0000000000  0.9325664988  -1.1133424527                           
 INPUT CARD>$END                                                                            
 INPUT CARD> $bsC                                                                           
 INPUT CARD>S   8                                                                           
 INPUT CARD>  1   8236.0000000              0.0005310                                       
 INPUT CARD>  2   1235.0000000              0.0041080                                       
 INPUT CARD>  3    280.8000000              0.0210870                                       
 INPUT CARD>  4     79.2700000              0.0818530                                       
 INPUT CARD>  5     25.5900000              0.2348170                                       
 INPUT CARD>  6      8.9970000              0.4344010                                       
 INPUT CARD>  7      3.3190000              0.3461290                                       
 INPUT CARD>  8      0.3643000             -0.0089830                                       
 INPUT CARD>S   8                                                                           
 INPUT CARD>  1   8236.0000000             -0.0001130                                       
 INPUT CARD>  2   1235.0000000             -0.0008780                                       
 INPUT CARD>  3    280.8000000             -0.0045400                                       
 INPUT CARD>  4     79.2700000             -0.0181330                                       
 INPUT CARD>  5     25.5900000             -0.0557600                                       
 INPUT CARD>  6      8.9970000             -0.1268950                                       
 INPUT CARD>  7      3.3190000             -0.1703520                                       
 INPUT CARD>  8      0.3643000              0.5986840                                       
 INPUT CARD>S   1                                                                           
 INPUT CARD>  1      0.9059000              1.0000000                                       
 INPUT CARD>S   1                                                                           
 INPUT CARD>  1      0.1285000              1.0000000                                       
 INPUT CARD>S   1                                                                           
 INPUT CARD>  1      0.0440200              1.0000000                                       
 INPUT CARD>P   3                                                                           
 INPUT CARD>  1     18.7100000              0.0140310                                       
 INPUT CARD>  2      4.1330000              0.0868660                                       
 INPUT CARD>  3      1.2000000              0.2902160                                       
 INPUT CARD>P   1                                                                           
 INPUT CARD>  1      0.3827000              1.0000000                                       
  200000000 WORDS OF MEMORY AVAILABLE

     BASIS OPTIONS
     -------------
     GBASIS=             IGAUSS=       0      POLAR=NONE    
     NDFUNC=       0     NFFUNC=       0     DIFFSP=       F
     NPFUNC=       0      DIFFS=       F     BASNAM=BSC     

 USING BASNAM FOR ATOM CUSTOMIZED BASIS CONSTRUCTION
     ----------------
     ATOM  BASIS NAME
     ----------------
       1   BSC     
       2   BSO     
       3   BSH     
       4   BSH     
 NOW LOCATING ALL    4 BASIS SETS IN YOUR INPUT FILE...
 FOUND BASIS SET  $BSC   
 S   8                         
   1   8236.0000000            
   2   1235.0000000            
   3    280.8000000            
   4     79.2700000            
   5     25.5900000            
   6      8.9970000            
   7      3.3190000            
   8      0.3643000            
 S   8                         
   1   8236.0000000            
   2   1235.0000000            
   3    280.8000000            
   4     79.2700000            
   5     25.5900000            
   6      8.9970000            
   7      3.3190000            
   8      0.3643000            
 S   1                         
   1      0.9059000            
 S   1                         
   1      0.1285000            
 S   1                         
   1      0.0440200            
 P   3                         
   1     18.7100000            
   2      4.1330000            
   3      1.2000000            
 P   1                         
   1      0.3827000            
 P   1                         
   1      0.1209000            
 P   1                         
   1      0.0356900            
 D   1                         
   1      1.0970000            
 D   1                         
   1      0.3180000            
 D   1                         
   1      0.1000000            
 F   1                         
   1      0.7610000            
 F   1                         
   1      0.2680000            
                               
  $END                         
 FOUND BASIS SET  $BSO   
 S   8                         
   1  15330.0000000            
   2   2299.0000000            
   3    522.4000000            
   4    147.3000000            
   5     47.5500000            
   6     16.7600000            
   7      6.2070000            
   8      0.6882000            
 S   8                         
   1  15330.0000000            
   2   2299.0000000            
   3    522.4000000            
   4    147.3000000            
   5     47.5500000            
   6     16.7600000            
   7      6.2070000            
   8      0.6882000            
 S   1                         
   1      1.7520000            
 S   1                         
   1      0.2384000            
 S   1                         
   1      0.0737600            
 P   3                         
   1     34.4600000            
   2      7.7490000            
   3      2.2800000            
 P   1                         
   1      0.7156000            
 P   1                         
   1      0.2140000            
 P   1                         
   1      0.0597400            
 D   1                         
   1      2.3140000            
 D   1                         
   1      0.6450000            
 D   1                         
   1      0.2140000            
 F   1                         
   1      1.4280000            
 F   1                         
   1      0.5000000            
                               
  $END                         
 FOUND BASIS SET  $BSH   
 S   3                         
   1     33.8700000            
   2      5.0950000            
   3      1.1590000            
 S   1                         
   1      0.3258000            
 S   1                         
   1      0.1027000            
 S   1                         
   1      0.0252600            
 P   1                         
   1      1.4070000            
 P   1                         
   1      0.3880000            
 P   1                         
   1      0.1020000            
 D   1                         
   1      1.0570000            
 D   1                         
   1      0.2470000            
                               
  $END                         
    3 UNIQUE ATOM CUSTOMIZED BASIS SETS WERE FOUND.

     SEARCHING FOR $MCP
     $MCP GROUP NOT FOUND


     RUN TITLE
     ---------
 formaldehyde                                                                    

 THE POINT GROUP OF THE MOLECULE IS CNV     
 THE ORDER OF THE PRINCIPAL AXIS IS     2
 *** WARNING! ATOM   1 SHELL    1 TYPE S HAS NORMALIZATION   1.02152578
 *** WARNING! ATOM   1 SHELL    2 TYPE S HAS NORMALIZATION   1.73798437
 *** WARNING! ATOM   1 SHELL    6 TYPE P HAS NORMALIZATION   2.80994848
 *** WARNING! ATOM   2 SHELL   15 TYPE S HAS NORMALIZATION   1.02401242
 *** WARNING! ATOM   2 SHELL   16 TYPE S HAS NORMALIZATION   1.71509575
 *** WARNING! ATOM   2 SHELL   20 TYPE P HAS NORMALIZATION   2.58434766
 *** WARNING! ATOM   3 SHELL   29 TYPE S HAS NORMALIZATION   4.20152657

 ATOM      ATOMIC                      COORDINATES (BOHR)
           CHARGE         X                   Y                   Z
 C           6.0     0.0000000000        0.0000000000       -0.9950402722
 O           8.0     0.0000000000        0.0000000000        1.2387389593
 H           1.0     0.0000000000       -1.7622951481       -2.1039121661
 H           1.0     0.0000000000        1.7622951481       -2.1039121661

          INTERNUCLEAR DISTANCES (ANGS.)
          ------------------------------

                1 C          2 O          3 H          4 H     

   1 C       0.0000000    1.1820651 *  1.1018178 *  1.1018178 *
   2 O       1.1820651 *  0.0000000    1.9996320 *  1.9996320 *
   3 H       1.1018178 *  1.9996320 *  0.0000000    1.8651330 *
   4 H       1.1018178 *  1.9996320 *  1.8651330 *  0.0000000  

  * ... LESS THAN  3.000


     ATOMIC BASIS SET
     ----------------
 THE CONTRACTED PRIMITIVE FUNCTIONS HAVE BEEN UNNORMALIZED
 THE CONTRACTED BASIS FUNCTIONS ARE NOW NORMALIZED TO UNITY

  SHELL TYPE  PRIMITIVE        EXPONENT          CONTRACTION COEFFICIENT(S)

 C         

      1   S       1          8236.0000000    0.000542430189
      1   S       2          1235.0000000    0.004196427901
      1   S       3           280.8000000    0.021540914108
      1   S       4            79.2700000    0.083614949614
      1   S       5            25.5900000    0.239871618922
      1   S       6             8.9970000    0.443751820060
      1   S       7             3.3190000    0.353579696469
      1   S       8             0.3643000   -0.009176366076

      2   S       9          8236.0000000   -0.000196392234
      2   S      10          1235.0000000   -0.001525950274
      2   S      11           280.8000000   -0.007890449028
      2   S      12            79.2700000   -0.031514870532
      2   S      13            25.5900000   -0.096910008320
      2   S      14             8.9970000   -0.220541526288
      2   S      15             3.3190000   -0.296069112937
      2   S      16             0.3643000    1.040503432950

      3   S      17             0.9059000    1.000000000000

      4   S      18             0.1285000    1.000000000000

      5   S      19             0.0440200    1.000000000000

      6   P      20            18.7100000    0.039426387165
      6   P      21             4.1330000    0.244088984924
      6   P      22             1.2000000    0.815492008943

      7   P      23             0.3827000    1.000000000000

      8   P      24             0.1209000    1.000000000000

      9   P      25             0.0356900    1.000000000000

     10   D      26             1.0970000    1.000000000000

     11   D      27             0.3180000    1.000000000000

     12   D      28             0.1000000    1.000000000000

     13   F      29             0.7610000    1.000000000000

     14   F      30             0.2680000    1.000000000000

 O         

     15   S      31         15330.0000000    0.000520198307
     15   S      32          2299.0000000    0.004023344781
     15   S      33           522.4000000    0.020729083329
     15   S      34           147.3000000    0.081082327080
     15   S      35            47.5500000    0.236226352118
     15   S      36            16.7600000    0.443518209420
     15   S      37             6.2070000    0.358670588689
     15   S      38             0.6882000   -0.008349797237

     16   S      39         15330.0000000   -0.000197236012
     16   S      40          2299.0000000   -0.001535010700
     16   S      41           522.4000000   -0.007951183914
     16   S      42           147.3000000   -0.032113452892
     16   S      43            47.5500000   -0.100269643049
     16   S      44            16.7600000   -0.234047111838
     16   S      45             6.2070000   -0.301410927756
     16   S      46             0.6882000    1.034919649508

     17   S      47             1.7520000    1.000000000000

     18   S      48             0.2384000    1.000000000000

     19   S      49             0.0737600    1.000000000000

     20   P      50            34.4600000    0.041163489568
     20   P      51             7.7490000    0.257762835858
     20   P      52             2.2800000    0.802419274427

     21   P      53             0.7156000    1.000000000000

     22   P      54             0.2140000    1.000000000000

     23   P      55             0.0597400    1.000000000000

     24   D      56             2.3140000    1.000000000000

     25   D      57             0.6450000    1.000000000000

     26   D      58             0.2140000    1.000000000000

     27   F      59             1.4280000    1.000000000000

     28   F      60             0.5000000    1.000000000000

 H         

     38   S      61            33.8700000    0.025494863235
     38   S      62             5.0950000    0.190362765893
     38   S      63             1.1590000    0.852162022245

     39   S      64             0.3258000    1.000000000000

     40   S      65             0.1027000    1.000000000000

     41   S      66             0.0252600    1.000000000000

     42   P      67             1.4070000    1.000000000000

     43   P      68             0.3880000    1.000000000000

     44   P      69             0.1020000    1.000000000000

     45   D      70             1.0570000    1.000000000000

     46   D      71             0.2470000    1.000000000000

 TOTAL NUMBER OF BASIS SET SHELLS             =   46
 NUMBER OF CARTESIAN GAUSSIAN BASIS FUNCTIONS =  160
 NOTE: THIS RUN WILL RESTRICT THE MO VARIATION SPACE TO SPHERICAL HARMONICS.
 THE NUMBER OF ORBITALS KEPT IN THE VARIATIONAL SPACE WILL BE PRINTED LATER.
 NUMBER OF ELECTRONS                          =   16
 CHARGE OF MOLECULE                           =    0
 SPIN MULTIPLICITY                            =    1
 NUMBER OF OCCUPIED ORBITALS (ALPHA)          =    8
 NUMBER OF OCCUPIED ORBITALS (BETA )          =    8
 TOTAL NUMBER OF ATOMS                        =    4
 THE NUCLEAR REPULSION ENERGY IS       31.7694835641

     $CONTRL OPTIONS
     ---------------
 SCFTYP=RHF          RUNTYP=ENERGY       EXETYP=RUN     
 MPLEVL=       0     CITYP =CIS          CCTYP =NONE         VBTYP =NONE    
 DFTTYP=NONE         TDDFT =NONE    
 MULT  =       1     ICHARG=       0     NZVAR =       0     COORD =UNIQUE  
 PP    =NONE         RELWFN=NONE         LOCAL =NONE         NUMGRD=       F
 ISPHER=       1     NOSYM =       0     MAXIT =      30     UNITS =ANGS    
 PLTORB=       F     MOLPLT=       F     AIMPAC=       F     FRIEND=        
 NPRINT=       7     IREST =       0     GEOM  =INPUT   
 NORMF =       0     NORMP =       0     ITOL  =      20     ICUT  =       9
 INTTYP=BEST         GRDTYP=BEST         QMTTOL= 1.0E-06

     $SYSTEM OPTIONS
     ---------------
  REPLICATED MEMORY=   200000000 WORDS (ON EVERY NODE).
 DISTRIBUTED MEMDDI=           0 MILLION WORDS IN AGGREGATE,
 MEMDDI DISTRIBUTED OVER   2 PROCESSORS IS           0 WORDS/PROCESSOR.
 TOTAL MEMORY REQUESTED ON EACH PROCESSOR=   200000000 WORDS.
 TIMLIM=      525600.00 MINUTES, OR     365.0 DAYS.
 PARALL= T  BALTYP=  DLB     KDIAG=    0  COREFL= F
 MXSEQ2=     300 MXSEQ3=     150

     INPUT DEFINING PLOTTING GRID
     ----------------------------
 ORIGIN=        0.0000000000        0.0000000000        0.0000000000
   XVEC=        1.0000000000        0.0000000000        0.0000000000
   YVEC=        0.0000000000        1.0000000000        0.0000000000
   SIZE=        0.2500000000   UNITS=ANGS    
 THE GRID WILL CONTAIN     5 BY     5 MESH POINTS.
 THE CORNERS OF THE GRID LIE AT (BOHR UNITS)
  LOWER LEFT=        0.0000000000        0.0000000000        0.0000000000
 LOWER RIGHT=        1.8897259877        0.0000000000        0.0000000000
  UPPER LEFT=        0.0000000000        1.8897259877        0.0000000000
 UPPER RIGHT=        1.8897259877        1.8897259877        0.0000000000

          ----------------
          PROPERTIES INPUT
          ----------------

     MOMENTS            FIELD           POTENTIAL          DENSITY
 IEMOM =       1   IEFLD =       0   IEPOT =       0   IEDEN =       1
 WHERE =COMASS     WHERE =NUCLEI     WHERE =NUCLEI     WHERE =GRID    
 OUTPUT=BOTH       OUTPUT=BOTH       OUTPUT=BOTH       OUTPUT=BOTH    
 IEMINT=       0   IEFINT=       0                     IEDINT=       0
                                                       MORB  =       0
          EXTRAPOLATION IN EFFECT
          SOSCF IN EFFECT
 ORBITAL PRINTING OPTION: NPREO=     1   160     2     1

     -------------------------------
     INTEGRAL TRANSFORMATION OPTIONS
     -------------------------------
     NWORD  =            0
     CUTOFF = 1.0E-09     MPTRAN =       0
     DIRTRF =       T     AOINTS =DUP     

          ----------------------
          INTEGRAL INPUT OPTIONS
          ----------------------
 NOPK  =       1 NORDER=       0 SCHWRZ=       T

     ------------------------------
     CI-SINGLES CONTROL INFORMATION
     ------------------------------
     NACORE =        2  NBCORE   =        2
     NSTATE =       20  IROOT    =        7
     HAMTYP = SAPS      SAP MULT =        1
     DIAGZN = DAVID     MXVEC    =      160
     NDAVIT =      100  DAVCVG   = 1.00E-05
     CISPRP =        F  NGSVEC   =       40
     MNMEDG =        F  MNMEOP   =        F
     CHFSLV = CONJG     RDCISV   =        F
     DGAPRX =        T

     NUMBER OF CORE -A-  ORBITALS =     2
     NUMBER OF CORE -B-  ORBITALS =     2
     NUMBER OF OCC. -A-  ORBITALS =     8
     NUMBER OF OCC. -B-  ORBITALS =     8
     NUMBER OF MOLECULAR ORBITALS =   160
     NUMBER OF   BASIS  FUNCTIONS =   160


     ------------------------------------------
     THE POINT GROUP IS CNV, NAXIS= 2, ORDER= 4
     ------------------------------------------

 -- VARIATIONAL SPACE WILL BE RESTRICTED TO PURE SPHERICAL HARMONICS ONLY --
 AFTER EXCLUDING CONTAMINANT COMBINATIONS FROM THE CARTESIAN GAUSSIAN BASIS
 SET, THE NUMBER OF SPHERICAL HARMONICS KEPT IN THE VARIATION SPACE IS  138

     DIMENSIONS OF THE SYMMETRY SUBSPACES ARE
 A1  =   54     A2  =   17     B1  =   29     B2  =   38

 ..... DONE SETTING UP THE RUN .....
 CPU     0: STEP CPU TIME=     0.01 TOTAL CPU TIME=        0.0 (    0.0 MIN)
 TOTAL WALL CLOCK TIME=        1.5 SECONDS, CPU UTILIZATION IS   1.33%

          ********************
          1 ELECTRON INTEGRALS
          ********************
 ...... END OF ONE-ELECTRON INTEGRALS ......
 CPU     0: STEP CPU TIME=     0.00 TOTAL CPU TIME=        0.0 (    0.0 MIN)
 TOTAL WALL CLOCK TIME=        1.5 SECONDS, CPU UTILIZATION IS   1.32%

          -------------
          GUESS OPTIONS
          -------------
          GUESS =HUCKEL            NORB  =       0          NORDER=       0
          MIX   =       F          PRTMO =       F          PUNMO =       F
          TOLZ  = 1.0E-08          TOLE  = 1.0E-05
          SYMDEN=       F          PURIFY=       F

 INITIAL GUESS ORBITALS GENERATED BY HUCKEL   ROUTINE.
 HUCKEL GUESS REQUIRES    186400 WORDS.

 STATISTICS FOR GENERATION OF SYMMETRY ORBITAL -Q- MATRIX
 NUMBER OF CARTESIAN ATOMIC ORBITALS=        160
 NUMBER OF SPHERICAL CONTAMINANTS DROPPED=    22
 NUMBER OF LINEARLY DEPENDENT MOS DROPPED=     0
 TOTAL NUMBER OF MOS IN VARIATION SPACE=     138

 SYMMETRIES FOR INITIAL GUESS ORBITALS FOLLOW.   BOTH SET(S).
     8 ORBITALS ARE OCCUPIED (    2 CORE ORBITALS).
     3=A1       4=A1       5=B2       6=B1       7=A1       8=B2       9=B1  
    10=B2      11=A1      12=A1      13=A1      14=A1      15=A1      16=A1  
    17=A1      18=A1  
 ...... END OF INITIAL ORBITAL SELECTION ......
 CPU     0: STEP CPU TIME=     0.05 TOTAL CPU TIME=        0.1 (    0.0 MIN)
 TOTAL WALL CLOCK TIME=        1.7 SECONDS, CPU UTILIZATION IS   4.22%

                    ----------------------
                    AO INTEGRAL TECHNOLOGY
                    ----------------------
     S,P,L SHELL ROTATED AXIS INTEGRALS, REPROGRAMMED BY
        KAZUYA ISHIMURA (IMS) AND JOSE SIERRA (SYNSTAR).
     S,P,D,L SHELL ROTATED AXIS INTEGRALS PROGRAMMED BY
        KAZUYA ISHIMURA (INSTITUTE FOR MOLECULAR SCIENCE).
     S,P,D,F,G SHELL TO TOTAL QUARTET ANGULAR MOMENTUM SUM 5,
        ERIC PROGRAM BY GRAHAM FLETCHER (ELORET AND NASA ADVANCED
        SUPERCOMPUTING DIVISION, AMES RESEARCH CENTER).
     S,P,D,F,G,L SHELL GENERAL RYS QUADRATURE PROGRAMMED BY
        MICHEL DUPUIS (PACIFIC NORTHWEST NATIONAL LABORATORY).

          --------------------
          2 ELECTRON INTEGRALS
          --------------------

 DIRECT SCF METHOD SKIPS INTEGRAL STORAGE ON DISK.
 DIRECT TRANSFORMATION SKIPS AO INTEGRAL STORAGE ON DISK.
  ...... END OF TWO-ELECTRON INTEGRALS .....
 CPU     0: STEP CPU TIME=     0.01 TOTAL CPU TIME=        0.1 (    0.0 MIN)
 TOTAL WALL CLOCK TIME=        1.8 SECONDS, CPU UTILIZATION IS   4.55%

          --------------------------
                 RHF SCF CALCULATION
          --------------------------

     NUCLEAR ENERGY =        31.7694835641
     MAXIT =   30     NPUNCH=    2
     EXTRAP=T  DAMP=F  SHIFT=F  RSTRCT=F  DIIS=F  DEM=F  SOSCF=T
     DENSITY MATRIX CONV=  2.00E-06
     SOSCF WILL OPTIMIZE    1040 ORBITAL ROTATIONS, SOGTOL=   0.250
     MEMORY REQUIRED FOR RHF ITERS=    241862 WORDS.

 DIRECT SCF CALCULATION, SCHWRZ=T   FDIFF=T,  DIRTHR=  0.00E+00 NITDIR=10
 SCHWARZ INEQUALITY OVERHEAD:     12880 INTEGRALS, T=        0.01

                                                                                   NONZERO     BLOCKS
 ITER EX DEM     TOTAL ENERGY        E CHANGE  DENSITY CHANGE     ORB. GRAD      INTEGRALS    SKIPPED
   1  0  0     -113.5069062393  -113.5069062393   0.539663699   0.000000000       20965324          8
          ---------------START SECOND ORDER SCF---------------
   2  1  0     -113.8832636185    -0.3763573791   0.070787865   0.050314624       20965309         13
   3  2  0     -113.9045377888    -0.0212741704   0.024549509   0.028767483       20964973         53
   4  3  0     -113.9146987355    -0.0101609467   0.008090071   0.003944072       20961941        134
   5  4  0     -113.9151027657    -0.0004040302   0.001944068   0.001979240       20960848        202
   6  5  0     -113.9151801636    -0.0000773979   0.001302730   0.000783635       20953630        373
   7  6  0     -113.9151924174    -0.0000122538   0.000384179   0.000231830       20946764        631
   8  7  0     -113.9151935829    -0.0000011655   0.000110638   0.000057347       20928004        944
   9  8  0     -113.9151936872    -0.0000001043   0.000019428   0.000009532       20888868       1889
  10  9  0     -113.9151936903    -0.0000000031   0.000011323   0.000002209       20708774       5216
  11 10  0     -113.9151936905    -0.0000000002   0.000002218   0.000000423       20486149       8928
  12 11  0     -113.9151936903     0.0000000001   0.000000468   0.000000109       20043874      16754

          -----------------
          DENSITY CONVERGED
          -----------------
     TIME TO FORM FOCK OPERATORS=      10.4 SECONDS (       0.9 SEC/ITER)
     FOCK TIME ON FIRST ITERATION=       0.9, LAST ITERATION=       0.8
     TIME TO SOLVE SCF EQUATIONS=       0.0 SECONDS (       0.0 SEC/ITER)

 FINAL RHF ENERGY IS     -113.9151936903 AFTER  12 ITERATIONS

          ------------
          EIGENVECTORS
          ------------

                      1          2          3          4          5
                  -20.5775   -11.3375    -1.4227    -0.8676    -0.6995
                     A1         A1         A1         A1         B2  
    1  C  1  S    0.000405   0.978998  -0.014015  -0.004851   0.000000
    2  C  1  S    0.000953   0.002444   0.252909   0.398124   0.000000
    3  C  1  S    0.000190   0.041727   0.053153   0.086737   0.000000
    4  C  1  S    0.000601   0.009781   0.129995   0.306678   0.000000
    5  C  1  S    0.000082   0.002574   0.008112   0.014516   0.000000
    6  C  1  X    0.000000   0.000000   0.000000   0.000000   0.000000
    7  C  1  Y    0.000000   0.000000   0.000000   0.000000   0.218984
    8  C  1  Z    0.000284   0.000286   0.105276  -0.098760   0.000000
    9  C  1  X    0.000000   0.000000   0.000000   0.000000   0.000000
   10  C  1  Y    0.000000   0.000000   0.000000   0.000000   0.293704
   11  C  1  Z    0.002837   0.001776   0.072052  -0.123855   0.000000
   12  C  1  X    0.000000   0.000000   0.000000   0.000000   0.000000
   13  C  1  Y    0.000000   0.000000   0.000000   0.000000   0.121546
   14  C  1  Z    0.000068  -0.001731  -0.027126  -0.070538   0.000000
   15  C  1  X    0.000000   0.000000   0.000000   0.000000   0.000000
   16  C  1  Y    0.000000   0.000000   0.000000   0.000000  -0.008752
   17  C  1  Z    0.000061  -0.000140  -0.002001  -0.000632   0.000000
   18  C  1 XX   -0.000155  -0.000990  -0.011956  -0.008967   0.000000
   19  C  1 YY   -0.000255   0.000088  -0.007990   0.010539   0.000000
   20  C  1 ZZ    0.000410   0.000902   0.019946  -0.001572   0.000000
   21  C  1 XY    0.000000   0.000000   0.000000   0.000000   0.000000
   22  C  1 XZ    0.000000   0.000000   0.000000   0.000000   0.000000
   23  C  1 YZ    0.000000   0.000000   0.000000   0.000000  -0.001338
   24  C  1 XX   -0.000267   0.000181  -0.017519  -0.021840   0.000000
   25  C  1 YY   -0.000976  -0.000322   0.009276   0.024432   0.000000
   26  C  1 ZZ    0.001242   0.000141   0.008243  -0.002593   0.000000
   27  C  1 XY    0.000000   0.000000   0.000000   0.000000   0.000000
   28  C  1 XZ    0.000000   0.000000   0.000000   0.000000   0.000000
   29  C  1 YZ    0.000000   0.000000   0.000000   0.000000  -0.037857
   30  C  1 XX    0.000093  -0.000260   0.001544  -0.004913   0.000000
   31  C  1 YY    0.001047   0.001395   0.017029  -0.000924   0.000000
   32  C  1 ZZ   -0.001140  -0.001135  -0.018574   0.005837   0.000000
   33  C  1 XY    0.000000   0.000000   0.000000   0.000000   0.000000
   34  C  1 XZ    0.000000   0.000000   0.000000   0.000000   0.000000
   35  C  1 YZ    0.000000   0.000000   0.000000   0.000000  -0.042796
   36  C  1 XXX   0.000000   0.000000   0.000000   0.000000   0.000000
   37  C  1 YYY   0.000000   0.000000   0.000000   0.000000  -0.003893
   38  C  1 ZZZ  -0.000054   0.000944   0.008770   0.004138   0.000000
   39  C  1 XXY   0.000000   0.000000   0.000000   0.000000  -0.003448
   40  C  1 XXZ  -0.000056  -0.000098  -0.001684   0.001066   0.000000
   41  C  1 YYX   0.000000   0.000000   0.000000   0.000000   0.000000
   42  C  1 YYZ   0.000128  -0.001168  -0.010081  -0.006618   0.000000
   43  C  1 ZZX   0.000000   0.000000   0.000000   0.000000   0.000000
   44  C  1 ZZY   0.000000   0.000000   0.000000   0.000000   0.008672
   45  C  1 XYZ   0.000000   0.000000   0.000000   0.000000   0.000000
   46  C  1 XXX   0.000000   0.000000   0.000000   0.000000   0.000000
   47  C  1 YYY   0.000000   0.000000   0.000000   0.000000  -0.004098
   48  C  1 ZZZ   0.000676  -0.001218  -0.002044   0.005385   0.000000
   49  C  1 XXY   0.000000   0.000000   0.000000   0.000000  -0.003017
   50  C  1 XXZ  -0.000342   0.000144   0.003549   0.003830   0.000000
   51  C  1 YYX   0.000000   0.000000   0.000000   0.000000   0.000000
   52  C  1 YYZ  -0.000565   0.001490  -0.000807  -0.011055   0.000000
   53  C  1 ZZX   0.000000   0.000000   0.000000   0.000000   0.000000
   54  C  1 ZZY   0.000000   0.000000   0.000000   0.000000   0.008516
   55  C  1 XYZ   0.000000   0.000000   0.000000   0.000000   0.000000
   56  O  2  S    0.974978  -0.000145  -0.009416  -0.001666   0.000000
   57  O  2  S   -0.002254   0.000642   0.466858  -0.221249   0.000000
   58  O  2  S    0.043656   0.000262   0.120715  -0.061524   0.000000
   59  O  2  S    0.002013  -0.001078   0.248392  -0.215047   0.000000
   60  O  2  S    0.000227  -0.000704   0.024217  -0.018176   0.000000
   61  O  2  X    0.000000   0.000000   0.000000   0.000000   0.000000
   62  O  2  Y    0.000000   0.000000   0.000000   0.000000   0.197093
   63  O  2  Z   -0.001931  -0.000448  -0.080609  -0.086556   0.000000
   64  O  2  X    0.000000   0.000000   0.000000   0.000000   0.000000
   65  O  2  Y    0.000000   0.000000   0.000000   0.000000   0.248383
   66  O  2  Z    0.002098   0.000445  -0.106146  -0.101146   0.000000
   67  O  2  X    0.000000   0.000000   0.000000   0.000000   0.000000
   68  O  2  Y    0.000000   0.000000   0.000000   0.000000   0.169357
   69  O  2  Z    0.000362   0.002256  -0.014083  -0.043067   0.000000
   70  O  2  X    0.000000   0.000000   0.000000   0.000000   0.000000
   71  O  2  Y    0.000000   0.000000   0.000000   0.000000   0.023073
   72  O  2  Z    0.000009   0.000220   0.000450  -0.001384   0.000000
   73  O  2 XX   -0.000218  -0.000011  -0.004361  -0.001284   0.000000
   74  O  2 YY   -0.000002  -0.000045  -0.003880  -0.001757   0.000000
   75  O  2 ZZ    0.000220   0.000056   0.008241   0.003041   0.000000
   76  O  2 XY    0.000000   0.000000   0.000000   0.000000   0.000000
   77  O  2 XZ    0.000000   0.000000   0.000000   0.000000   0.000000
   78  O  2 YZ    0.000000   0.000000   0.000000   0.000000  -0.008029
   79  O  2 XX    0.000224   0.000366  -0.010508  -0.000938   0.000000
   80  O  2 YY    0.000500   0.000372  -0.010873  -0.002842   0.000000
   81  O  2 ZZ   -0.000724  -0.000738   0.021381   0.003780   0.000000
   82  O  2 XY    0.000000   0.000000   0.000000   0.000000   0.000000
   83  O  2 XZ    0.000000   0.000000   0.000000   0.000000   0.000000
   84  O  2 YZ    0.000000   0.000000   0.000000   0.000000  -0.020627
   85  O  2 XX    0.000054   0.000674   0.003787   0.000763   0.000000
   86  O  2 YY    0.000033   0.000093   0.002909  -0.000815   0.000000
   87  O  2 ZZ   -0.000087  -0.000767  -0.006696   0.000052   0.000000
   88  O  2 XY    0.000000   0.000000   0.000000   0.000000   0.000000
   89  O  2 XZ    0.000000   0.000000   0.000000   0.000000   0.000000
   90  O  2 YZ    0.000000   0.000000   0.000000   0.000000  -0.011498
   91  O  2 XXX   0.000000   0.000000   0.000000   0.000000   0.000000
   92  O  2 YYY   0.000000   0.000000   0.000000   0.000000  -0.003561
   93  O  2 ZZZ   0.000022  -0.000126  -0.004206  -0.000875   0.000000
   94  O  2 XXY   0.000000   0.000000   0.000000   0.000000  -0.000478
   95  O  2 XXZ  -0.000039   0.000106   0.002639   0.000413   0.000000
   96  O  2 YYX   0.000000   0.000000   0.000000   0.000000   0.000000
   97  O  2 YYZ   0.000010   0.000063   0.003004   0.000761   0.000000
   98  O  2 ZZX   0.000000   0.000000   0.000000   0.000000   0.000000
   99  O  2 ZZY   0.000000   0.000000   0.000000   0.000000   0.005255
  100  O  2 XYZ   0.000000   0.000000   0.000000   0.000000   0.000000
  101  O  2 XXX   0.000000   0.000000   0.000000   0.000000   0.000000
  102  O  2 YYY   0.000000   0.000000   0.000000   0.000000  -0.002659
  103  O  2 ZZZ   0.000200   0.000464  -0.003103   0.000690   0.000000
  104  O  2 XXY   0.000000   0.000000   0.000000   0.000000   0.000642
  105  O  2 XXZ  -0.000108  -0.000305   0.001161  -0.000911   0.000000
  106  O  2 YYX   0.000000   0.000000   0.000000   0.000000   0.000000
  107  O  2 YYZ  -0.000160  -0.000318   0.003002  -0.000015   0.000000
  108  O  2 ZZX   0.000000   0.000000   0.000000   0.000000   0.000000
  109  O  2 ZZY   0.000000   0.000000   0.000000   0.000000   0.002926
  110  O  2 XYZ   0.000000   0.000000   0.000000   0.000000   0.000000
  111  H  3  S    0.000038   0.000226   0.014523   0.105677  -0.105412
  112  H  3  S    0.000549   0.000913  -0.020983   0.107904  -0.110111
  113  H  3  S   -0.000661  -0.004985  -0.053991  -0.027063   0.030986
  114  H  3  S   -0.000001  -0.000354  -0.002109  -0.001783  -0.005831
  115  H  3  X    0.000000   0.000000   0.000000   0.000000   0.000000
  116  H  3  Y    0.000054  -0.000252  -0.000173   0.009794  -0.007257
  117  H  3  Z    0.000045  -0.000197   0.000767   0.004531  -0.007515
  118  H  3  X    0.000000   0.000000   0.000000   0.000000   0.000000
  119  H  3  Y    0.000353  -0.000315  -0.013537   0.004102   0.012718
  120  H  3  Z    0.000246  -0.000011  -0.010157  -0.002459  -0.004318
  121  H  3  X    0.000000   0.000000   0.000000   0.000000   0.000000
  122  H  3  Y    0.000376  -0.000593  -0.007576  -0.017245   0.016207
  123  H  3  Z   -0.000670  -0.001284  -0.018883  -0.004641  -0.002954
  124  H  3 XX    0.000004   0.000119   0.000409  -0.001176   0.001204
  125  H  3 YY    0.000036  -0.000177  -0.001267   0.001813   0.000534
  126  H  3 ZZ   -0.000041   0.000058   0.000858  -0.000637  -0.001738
  127  H  3 XY    0.000000   0.000000   0.000000   0.000000   0.000000
  128  H  3 XZ    0.000000   0.000000   0.000000   0.000000   0.000000
  129  H  3 YZ    0.000031  -0.000292  -0.001013   0.001415  -0.003092
  130  H  3 XX   -0.000150   0.000305   0.003565   0.001176  -0.001885
  131  H  3 YY    0.000063  -0.000076  -0.000707  -0.000657   0.003879
  132  H  3 ZZ    0.000087  -0.000229  -0.002858  -0.000520  -0.001993
  133  H  3 XY    0.000000   0.000000   0.000000   0.000000   0.000000
  134  H  3 XZ    0.000000   0.000000   0.000000   0.000000   0.000000
  135  H  3 YZ   -0.000081   0.000077  -0.003849  -0.001661   0.003033
  136  H  4  S    0.000038   0.000226   0.014523   0.105677   0.105412
  137  H  4  S    0.000549   0.000913  -0.020983   0.107904   0.110111
  138  H  4  S   -0.000661  -0.004985  -0.053991  -0.027063  -0.030986
  139  H  4  S   -0.000001  -0.000354  -0.002109  -0.001783   0.005831
  140  H  4  X    0.000000   0.000000   0.000000   0.000000   0.000000
  141  H  4  Y   -0.000054   0.000252   0.000173  -0.009794  -0.007257
  142  H  4  Z    0.000045  -0.000197   0.000767   0.004531   0.007515
  143  H  4  X    0.000000   0.000000   0.000000   0.000000   0.000000
  144  H  4  Y   -0.000353   0.000315   0.013537  -0.004102   0.012718
  145  H  4  Z    0.000246  -0.000011  -0.010157  -0.002459   0.004318
  146  H  4  X    0.000000   0.000000   0.000000   0.000000   0.000000
  147  H  4  Y   -0.000376   0.000593   0.007576   0.017245   0.016207
  148  H  4  Z   -0.000670  -0.001284  -0.018883  -0.004641   0.002954
  149  H  4 XX    0.000004   0.000119   0.000409  -0.001176  -0.001204
  150  H  4 YY    0.000036  -0.000177  -0.001267   0.001813  -0.000534
  151  H  4 ZZ   -0.000041   0.000058   0.000858  -0.000637   0.001738
  152  H  4 XY    0.000000   0.000000   0.000000   0.000000   0.000000
  153  H  4 XZ    0.000000   0.000000   0.000000   0.000000   0.000000
  154  H  4 YZ   -0.000031   0.000292   0.001013  -0.001415  -0.003092
  155  H  4 XX   -0.000150   0.000305   0.003565   0.001176   0.001885
  156  H  4 YY    0.000063  -0.000076  -0.000707  -0.000657  -0.003879
  157  H  4 ZZ    0.000087  -0.000229  -0.002858  -0.000520   0.001993
  158  H  4 XY    0.000000   0.000000   0.000000   0.000000   0.000000
  159  H  4 XZ    0.000000   0.000000   0.000000   0.000000   0.000000
  160  H  4 YZ    0.000081  -0.000077   0.003849   0.001661   0.003033

                      6          7          8          9         10
                   -0.6594    -0.5478    -0.4402     0.0266     0.0420
                     A1         B1         B2         A1         B2  
    1  C  1  S    0.000976   0.000000   0.000000   0.003497   0.000000
    2  C  1  S   -0.050094   0.000000   0.000000   0.063619   0.000000
    3  C  1  S   -0.013360   0.000000   0.000000  -0.003257   0.000000
    4  C  1  S    0.093156   0.000000   0.000000   2.811073   0.000000
    5  C  1  S   -0.004040   0.000000   0.000000   4.402168   0.000000
    6  C  1  X    0.000000   0.178483   0.000000   0.000000   0.000000
    7  C  1  Y    0.000000   0.000000  -0.106384   0.000000   0.029370
    8  C  1  Z   -0.206122   0.000000   0.000000  -0.029055   0.000000
    9  C  1  X    0.000000   0.233947   0.000000   0.000000   0.000000
   10  C  1  Y    0.000000   0.000000  -0.156635   0.000000   0.114284
   11  C  1  Z   -0.227021   0.000000   0.000000  -0.044670   0.000000
   12  C  1  X    0.000000   0.117124   0.000000   0.000000   0.000000
   13  C  1  Y    0.000000   0.000000  -0.241858   0.000000   1.498870
   14  C  1  Z   -0.081380   0.000000   0.000000  -0.308968   0.000000
   15  C  1  X    0.000000   0.001218   0.000000   0.000000   0.000000
   16  C  1  Y    0.000000   0.000000  -0.024576   0.000000   2.572481
   17  C  1  Z   -0.001613   0.000000   0.000000  -0.136286   0.000000
   18  C  1 XX    0.004161   0.000000   0.000000   0.000473   0.000000
   19  C  1 YY    0.013264   0.000000   0.000000   0.000819   0.000000
   20  C  1 ZZ   -0.017425   0.000000   0.000000  -0.001292   0.000000
   21  C  1 XY    0.000000   0.000000   0.000000   0.000000   0.000000
   22  C  1 XZ    0.000000   0.022530   0.000000   0.000000   0.000000
   23  C  1 YZ    0.000000   0.000000   0.036040   0.000000  -0.002766
   24  C  1 XX    0.001078   0.000000   0.000000  -0.110187   0.000000
   25  C  1 YY    0.011861   0.000000   0.000000   0.054123   0.000000
   26  C  1 ZZ   -0.012939   0.000000   0.000000   0.056064   0.000000
   27  C  1 XY    0.000000   0.000000   0.000000   0.000000   0.000000
   28  C  1 XZ    0.000000   0.035793   0.000000   0.000000   0.000000
   29  C  1 YZ    0.000000   0.000000   0.079862   0.000000   0.006252
   30  C  1 XX   -0.003635   0.000000   0.000000  -0.217484   0.000000
   31  C  1 YY    0.011983   0.000000   0.000000   0.069252   0.000000
   32  C  1 ZZ   -0.008349   0.000000   0.000000   0.148232   0.000000
   33  C  1 XY    0.000000   0.000000   0.000000   0.000000   0.000000
   34  C  1 XZ    0.000000  -0.002581   0.000000   0.000000   0.000000
   35  C  1 YZ    0.000000   0.000000   0.059059   0.000000  -0.044481
   36  C  1 XXX   0.000000  -0.004822   0.000000   0.000000   0.000000
   37  C  1 YYY   0.000000   0.000000  -0.006387   0.000000  -0.001654
   38  C  1 ZZZ  -0.007493   0.000000   0.000000   0.005407   0.000000
   39  C  1 XXY   0.000000   0.000000   0.000529   0.000000   0.000299
   40  C  1 XXZ   0.003853   0.000000   0.000000   0.000549   0.000000
   41  C  1 YYX   0.000000  -0.002305   0.000000   0.000000   0.000000
   42  C  1 YYZ   0.006199   0.000000   0.000000  -0.007803   0.000000
   43  C  1 ZZX   0.000000   0.008774   0.000000   0.000000   0.000000
   44  C  1 ZZY   0.000000   0.000000   0.008039   0.000000   0.001920
   45  C  1 XYZ   0.000000   0.000000   0.000000   0.000000   0.000000
   46  C  1 XXX   0.000000  -0.001316   0.000000   0.000000   0.000000
   47  C  1 YYY   0.000000   0.000000  -0.010285   0.000000  -0.005104
   48  C  1 ZZZ   0.011401   0.000000   0.000000   0.046984   0.000000
   49  C  1 XXY   0.000000   0.000000   0.003872   0.000000  -0.033428
   50  C  1 XXZ  -0.001863   0.000000   0.000000   0.013965   0.000000
   51  C  1 YYX   0.000000  -0.004802   0.000000   0.000000   0.000000
   52  C  1 YYZ  -0.013434   0.000000   0.000000  -0.077000   0.000000
   53  C  1 ZZX   0.000000   0.006568   0.000000   0.000000   0.000000
   54  C  1 ZZY   0.000000   0.000000   0.009927   0.000000   0.040276
   55  C  1 XYZ   0.000000   0.000000   0.000000   0.000000   0.000000
   56  O  2  S    0.003950   0.000000   0.000000   0.000110   0.000000
   57  O  2  S    0.178295   0.000000   0.000000   0.008182   0.000000
   58  O  2  S    0.052374   0.000000   0.000000   0.003223   0.000000
   59  O  2  S    0.242518   0.000000   0.000000  -0.335164   0.000000
   60  O  2  S    0.072995   0.000000   0.000000  -1.459350   0.000000
   61  O  2  X    0.000000   0.274106   0.000000   0.000000   0.000000
   62  O  2  Y    0.000000   0.000000   0.301312   0.000000  -0.003679
   63  O  2  Z    0.289100   0.000000   0.000000   0.012601   0.000000
   64  O  2  X    0.000000   0.355223   0.000000   0.000000   0.000000
   65  O  2  Y    0.000000   0.000000   0.379809   0.000000  -0.003424
   66  O  2  Z    0.352176   0.000000   0.000000   0.029975   0.000000
   67  O  2  X    0.000000   0.248984   0.000000   0.000000   0.000000
   68  O  2  Y    0.000000   0.000000   0.301957   0.000000  -0.197595
   69  O  2  Z    0.194915   0.000000   0.000000   0.231561   0.000000
   70  O  2  X    0.000000   0.023758   0.000000   0.000000   0.000000
   71  O  2  Y    0.000000   0.000000   0.041311   0.000000  -0.475970
   72  O  2  Z    0.002109   0.000000   0.000000   0.356288   0.000000
   73  O  2 XX    0.005662   0.000000   0.000000   0.000409   0.000000
   74  O  2 YY    0.006368   0.000000   0.000000  -0.000366   0.000000
   75  O  2 ZZ   -0.012030   0.000000   0.000000  -0.000044   0.000000
   76  O  2 XY    0.000000   0.000000   0.000000   0.000000   0.000000
   77  O  2 XZ    0.000000  -0.010978   0.000000   0.000000   0.000000
   78  O  2 YZ    0.000000   0.000000  -0.003423   0.000000  -0.001324
   79  O  2 XX    0.012055   0.000000   0.000000   0.000414   0.000000
   80  O  2 YY    0.015055   0.000000   0.000000   0.006615   0.000000
   81  O  2 ZZ   -0.027111   0.000000   0.000000  -0.007029   0.000000
   82  O  2 XY    0.000000   0.000000   0.000000   0.000000   0.000000
   83  O  2 XZ    0.000000  -0.031613   0.000000   0.000000   0.000000
   84  O  2 YZ    0.000000   0.000000  -0.008506   0.000000   0.003241
   85  O  2 XX    0.002718   0.000000   0.000000   0.017818   0.000000
   86  O  2 YY    0.005410   0.000000   0.000000   0.018987   0.000000
   87  O  2 ZZ   -0.008128   0.000000   0.000000  -0.036805   0.000000
   88  O  2 XY    0.000000   0.000000   0.000000   0.000000   0.000000
   89  O  2 XZ    0.000000  -0.013723   0.000000   0.000000   0.000000
   90  O  2 YZ    0.000000   0.000000  -0.007247   0.000000   0.098610
   91  O  2 XXX   0.000000  -0.002519   0.000000   0.000000   0.000000
   92  O  2 YYY   0.000000   0.000000  -0.002252   0.000000  -0.000907
   93  O  2 ZZZ   0.004355   0.000000   0.000000   0.000571   0.000000
   94  O  2 XXY   0.000000   0.000000   0.000930   0.000000  -0.000389
   95  O  2 XXZ  -0.001979   0.000000   0.000000  -0.000386   0.000000
   96  O  2 YYX   0.000000  -0.002904   0.000000   0.000000   0.000000
   97  O  2 YYZ  -0.003864   0.000000   0.000000  -0.000379   0.000000
   98  O  2 ZZX   0.000000   0.006283   0.000000   0.000000   0.000000
   99  O  2 ZZY   0.000000   0.000000   0.002092   0.000000   0.001605
  100  O  2 XYZ   0.000000   0.000000   0.000000   0.000000   0.000000
  101  O  2 XXX   0.000000  -0.001670   0.000000   0.000000   0.000000
  102  O  2 YYY   0.000000   0.000000  -0.001693   0.000000   0.006537
  103  O  2 ZZZ   0.005885   0.000000   0.000000   0.001162   0.000000
  104  O  2 XXY   0.000000   0.000000  -0.000578   0.000000   0.003765
  105  O  2 XXZ  -0.003407   0.000000   0.000000   0.000356   0.000000
  106  O  2 YYX   0.000000  -0.002136   0.000000   0.000000   0.000000
  107  O  2 YYZ  -0.004488   0.000000   0.000000  -0.001915   0.000000
  108  O  2 ZZX   0.000000   0.004377   0.000000   0.000000   0.000000
  109  O  2 ZZY   0.000000   0.000000   0.002850   0.000000  -0.012536
  110  O  2 XYZ   0.000000   0.000000   0.000000   0.000000   0.000000
  111  H  3  S    0.058020   0.000000   0.109851   0.006510  -0.009918
  112  H  3  S    0.079628   0.000000   0.147966  -0.244333   0.083491
  113  H  3  S   -0.006405   0.000000  -0.085880  -1.459418   1.909950
  114  H  3  S    0.000361   0.000000  -0.011648  -1.654847   5.259907
  115  H  3  X    0.000000   0.003110   0.000000   0.000000   0.000000
  116  H  3  Y    0.006823   0.000000   0.005646   0.003373  -0.002048
  117  H  3  Z    0.001630   0.000000   0.003337   0.000848  -0.002625
  118  H  3  X    0.000000   0.010349   0.000000   0.000000   0.000000
  119  H  3  Y    0.011291   0.000000  -0.000546  -0.071642   0.030449
  120  H  3  Z    0.000889   0.000000  -0.004709  -0.038626   0.020387
  121  H  3  X    0.000000  -0.003814   0.000000   0.000000   0.000000
  122  H  3  Y   -0.002291   0.000000  -0.038863  -0.332242   0.356488
  123  H  3  Z   -0.008482   0.000000  -0.022095  -0.113163   0.391178
  124  H  3 XX   -0.000582   0.000000  -0.000137   0.001159  -0.001583
  125  H  3 YY    0.002433   0.000000   0.001281  -0.001397   0.001849
  126  H  3 ZZ   -0.001851   0.000000  -0.001144   0.000238  -0.000266
  127  H  3 XY    0.000000   0.001196   0.000000   0.000000   0.000000
  128  H  3 XZ    0.000000   0.001240   0.000000   0.000000   0.000000
  129  H  3 YZ    0.001249   0.000000   0.000206  -0.002593   0.000627
  130  H  3 XX   -0.004003   0.000000  -0.000765   0.000236  -0.004520
  131  H  3 YY    0.000384   0.000000  -0.001384  -0.010426  -0.006557
  132  H  3 ZZ    0.003619   0.000000   0.002148   0.010190   0.011077
  133  H  3 XY    0.000000  -0.000846   0.000000   0.000000   0.000000
  134  H  3 XZ    0.000000   0.001827   0.000000   0.000000   0.000000
  135  H  3 YZ   -0.001173   0.000000   0.001064   0.000759   0.007933
  136  H  4  S    0.058020   0.000000  -0.109851   0.006510   0.009918
  137  H  4  S    0.079628   0.000000  -0.147966  -0.244333  -0.083491
  138  H  4  S   -0.006405   0.000000   0.085880  -1.459418  -1.909950
  139  H  4  S    0.000361   0.000000   0.011648  -1.654847  -5.259907
  140  H  4  X    0.000000   0.003110   0.000000   0.000000   0.000000
  141  H  4  Y   -0.006823   0.000000   0.005646  -0.003373  -0.002048
  142  H  4  Z    0.001630   0.000000  -0.003337   0.000848   0.002625
  143  H  4  X    0.000000   0.010349   0.000000   0.000000   0.000000
  144  H  4  Y   -0.011291   0.000000  -0.000546   0.071642   0.030449
  145  H  4  Z    0.000889   0.000000   0.004709  -0.038626  -0.020387
  146  H  4  X    0.000000  -0.003814   0.000000   0.000000   0.000000
  147  H  4  Y    0.002291   0.000000  -0.038863   0.332242   0.356488
  148  H  4  Z   -0.008482   0.000000   0.022095  -0.113163  -0.391178
  149  H  4 XX   -0.000582   0.000000   0.000137   0.001159   0.001583
  150  H  4 YY    0.002433   0.000000  -0.001281  -0.001397  -0.001849
  151  H  4 ZZ   -0.001851   0.000000   0.001144   0.000238   0.000266
  152  H  4 XY    0.000000  -0.001196   0.000000   0.000000   0.000000
  153  H  4 XZ    0.000000   0.001240   0.000000   0.000000   0.000000
  154  H  4 YZ   -0.001249   0.000000   0.000206   0.002593   0.000627
  155  H  4 XX   -0.004003   0.000000   0.000765   0.000236   0.004520
  156  H  4 YY    0.000384   0.000000   0.001384  -0.010426   0.006557
  157  H  4 ZZ    0.003619   0.000000  -0.002148   0.010190  -0.011077
  158  H  4 XY    0.000000   0.000846   0.000000   0.000000   0.000000
  159  H  4 XZ    0.000000   0.001827   0.000000   0.000000   0.000000
  160  H  4 YZ    0.001173   0.000000   0.001064  -0.000759   0.007933

                     11         12         13         14         15
                    0.0637     0.0763     0.1330     0.1334     0.1338
                     B1         A1         B2         A1         B1  
    1  C  1  S    0.000000  -0.003731   0.000000   0.005098   0.000000
    2  C  1  S    0.000000  -0.031623   0.000000  -0.107974   0.000000
    3  C  1  S    0.000000  -0.000549   0.000000  -0.071163   0.000000
    4  C  1  S    0.000000   0.306878   0.000000   7.066456   0.000000
    5  C  1  S    0.000000  -0.887115   0.000000  11.279477   0.000000
    6  C  1  X    0.058182   0.000000   0.000000   0.000000  -0.201261
    7  C  1  Y    0.000000   0.000000  -0.064152   0.000000   0.000000
    8  C  1  Z    0.000000   0.008840   0.000000   0.053653   0.000000
    9  C  1  X    0.109284   0.000000   0.000000   0.000000  -0.273221
   10  C  1  Y    0.000000   0.000000   0.017397   0.000000   0.000000
   11  C  1  Z    0.000000  -0.142988   0.000000   0.129838   0.000000
   12  C  1  X    0.316845   0.000000   0.000000   0.000000  -0.122319
   13  C  1  Y    0.000000   0.000000   3.874058   0.000000   0.000000
   14  C  1  Z    0.000000  -1.753593   0.000000  -0.494752   0.000000
   15  C  1  X    1.473950   0.000000   0.000000   0.000000   0.846744
   16  C  1  Y    0.000000   0.000000   5.433863   0.000000   0.000000
   17  C  1  Z    0.000000  -2.090042   0.000000  -0.734546   0.000000
   18  C  1 XX    0.000000  -0.002106   0.000000   0.002089   0.000000
   19  C  1 YY    0.000000   0.000541   0.000000  -0.003290   0.000000
   20  C  1 ZZ    0.000000   0.001566   0.000000   0.001201   0.000000
   21  C  1 XY    0.000000   0.000000   0.000000   0.000000   0.000000
   22  C  1 XZ   -0.009012   0.000000   0.000000   0.000000   0.017690
   23  C  1 YZ    0.000000   0.000000   0.000679   0.000000   0.000000
   24  C  1 XX    0.000000   0.005694   0.000000  -0.273311   0.000000
   25  C  1 YY    0.000000   0.102251   0.000000   0.120302   0.000000
   26  C  1 ZZ    0.000000  -0.107945   0.000000   0.153009   0.000000
   27  C  1 XY    0.000000   0.000000   0.000000   0.000000   0.000000
   28  C  1 XZ   -0.049037   0.000000   0.000000   0.000000  -0.071455
   29  C  1 YZ    0.000000   0.000000  -0.123897   0.000000   0.000000
   30  C  1 XX    0.000000   0.010181   0.000000  -0.566213   0.000000
   31  C  1 YY    0.000000   0.652784   0.000000   0.292654   0.000000
   32  C  1 ZZ    0.000000  -0.662965   0.000000   0.273559   0.000000
   33  C  1 XY    0.000000   0.000000   0.000000   0.000000   0.000000
   34  C  1 XZ   -0.000582   0.000000   0.000000   0.000000  -0.150856
   35  C  1 YZ    0.000000   0.000000  -1.014788   0.000000   0.000000
   36  C  1 XXX   0.004360   0.000000   0.000000   0.000000   0.005440
   37  C  1 YYY   0.000000   0.000000   0.001121   0.000000   0.000000
   38  C  1 ZZZ   0.000000  -0.003456   0.000000   0.015732   0.000000
   39  C  1 XXY   0.000000   0.000000   0.002801   0.000000   0.000000
   40  C  1 XXZ   0.000000   0.004527   0.000000  -0.001656   0.000000
   41  C  1 YYX  -0.000936   0.000000   0.000000   0.000000  -0.003334
   42  C  1 YYZ   0.000000   0.000110   0.000000  -0.019450   0.000000
   43  C  1 ZZX  -0.004914   0.000000   0.000000   0.000000  -0.003965
   44  C  1 ZZY   0.000000   0.000000  -0.004305   0.000000   0.000000
   45  C  1 XYZ   0.000000   0.000000   0.000000   0.000000   0.000000
   46  C  1 XXX  -0.008400   0.000000   0.000000   0.000000  -0.023681
   47  C  1 YYY   0.000000   0.000000   0.014676   0.000000   0.000000
   48  C  1 ZZZ   0.000000  -0.023979   0.000000   0.098755   0.000000
   49  C  1 XXY   0.000000   0.000000  -0.097944   0.000000   0.000000
   50  C  1 XXZ   0.000000   0.041088   0.000000   0.036540   0.000000
   51  C  1 YYX   0.025133   0.000000   0.000000   0.000000   0.045093
   52  C  1 YYZ   0.000000  -0.008917   0.000000  -0.169034   0.000000
   53  C  1 ZZX  -0.013864   0.000000   0.000000   0.000000  -0.013322
   54  C  1 ZZY   0.000000   0.000000   0.078254   0.000000   0.000000
   55  C  1 XYZ   0.000000   0.000000   0.000000   0.000000   0.000000
   56  O  2  S    0.000000  -0.001769   0.000000   0.001863   0.000000
   57  O  2  S    0.000000   0.050452   0.000000  -0.019009   0.000000
   58  O  2  S    0.000000   0.012664   0.000000  -0.002982   0.000000
   59  O  2  S    0.000000   0.892779   0.000000  -0.984253   0.000000
   60  O  2  S    0.000000   3.968049   0.000000  -4.725366   0.000000
   61  O  2  X   -0.101724   0.000000   0.000000   0.000000   0.140423
   62  O  2  Y    0.000000   0.000000  -0.019147   0.000000   0.000000
   63  O  2  Z    0.000000   0.007597   0.000000  -0.025349   0.000000
   64  O  2  X   -0.132980   0.000000   0.000000   0.000000   0.186717
   65  O  2  Y    0.000000   0.000000  -0.020237   0.000000   0.000000
   66  O  2  Z    0.000000  -0.032274   0.000000   0.009439   0.000000
   67  O  2  X   -0.106253   0.000000   0.000000   0.000000   0.364777
   68  O  2  Y    0.000000   0.000000  -0.220345   0.000000   0.000000
   69  O  2  Z    0.000000  -0.283276   0.000000   0.686009   0.000000
   70  O  2  X   -0.729960   0.000000   0.000000   0.000000   0.241096
   71  O  2  Y    0.000000   0.000000  -0.492645   0.000000   0.000000
   72  O  2  Z    0.000000  -0.265042   0.000000   1.230714   0.000000
   73  O  2 XX    0.000000   0.001642   0.000000   0.000811   0.000000
   74  O  2 YY    0.000000  -0.000084   0.000000  -0.001463   0.000000
   75  O  2 ZZ    0.000000  -0.001558   0.000000   0.000652   0.000000
   76  O  2 XY    0.000000   0.000000   0.000000   0.000000   0.000000
   77  O  2 XZ    0.001100   0.000000   0.000000   0.000000   0.005698
   78  O  2 YZ    0.000000   0.000000   0.002631   0.000000   0.000000
   79  O  2 XX    0.000000  -0.021019   0.000000   0.006805   0.000000
   80  O  2 YY    0.000000  -0.008129   0.000000   0.022816   0.000000
   81  O  2 ZZ    0.000000   0.029148   0.000000  -0.029621   0.000000
   82  O  2 XY    0.000000   0.000000   0.000000   0.000000   0.000000
   83  O  2 XZ   -0.010605   0.000000   0.000000   0.000000  -0.002263
   84  O  2 YZ    0.000000   0.000000   0.000583   0.000000   0.000000
   85  O  2 XX    0.000000   0.058248   0.000000   0.091340   0.000000
   86  O  2 YY    0.000000  -0.000859   0.000000   0.060009   0.000000
   87  O  2 ZZ    0.000000  -0.057388   0.000000  -0.151349   0.000000
   88  O  2 XY    0.000000   0.000000   0.000000   0.000000   0.000000
   89  O  2 XZ    0.024203   0.000000   0.000000   0.000000  -0.071324
   90  O  2 YZ    0.000000   0.000000   0.154719   0.000000   0.000000
   91  O  2 XXX  -0.000515   0.000000   0.000000   0.000000   0.002302
   92  O  2 YYY   0.000000   0.000000   0.000101   0.000000   0.000000
   93  O  2 ZZZ   0.000000  -0.002979   0.000000   0.001516   0.000000
   94  O  2 XXY   0.000000   0.000000  -0.001042   0.000000   0.000000
   95  O  2 XXZ   0.000000   0.002633   0.000000  -0.000926   0.000000
   96  O  2 YYX   0.000543   0.000000   0.000000   0.000000   0.000398
   97  O  2 YYZ   0.000000   0.001364   0.000000  -0.001108   0.000000
   98  O  2 ZZX   0.000149   0.000000   0.000000   0.000000  -0.003487
   99  O  2 ZZY   0.000000   0.000000   0.000906   0.000000   0.000000
  100  O  2 XYZ   0.000000   0.000000   0.000000   0.000000   0.000000
  101  O  2 XXX   0.000568   0.000000   0.000000   0.000000  -0.008557
  102  O  2 YYY   0.000000   0.000000   0.002116   0.000000   0.000000
  103  O  2 ZZZ   0.000000   0.005336   0.000000   0.008320   0.000000
  104  O  2 XXY   0.000000   0.000000   0.008661   0.000000   0.000000
  105  O  2 XXZ   0.000000  -0.006211   0.000000  -0.005437   0.000000
  106  O  2 YYX  -0.000885   0.000000   0.000000   0.000000  -0.006679
  107  O  2 YYZ   0.000000  -0.000947   0.000000  -0.005725   0.000000
  108  O  2 ZZX   0.000123   0.000000   0.000000   0.000000   0.018160
  109  O  2 ZZY   0.000000   0.000000  -0.011499   0.000000   0.000000
  110  O  2 XYZ   0.000000   0.000000   0.000000   0.000000   0.000000
  111  H  3  S    0.000000   0.003644   0.008083  -0.003813   0.000000
  112  H  3  S    0.000000  -0.160696   0.413028  -0.589609   0.000000
  113  H  3  S    0.000000  -1.592145   5.772925  -3.988633   0.000000
  114  H  3  S    0.000000  -0.395943   6.378179  -2.372474   0.000000
  115  H  3  X    0.002862   0.000000   0.000000   0.000000  -0.009364
  116  H  3  Y    0.000000   0.000421   0.003201  -0.001375   0.000000
  117  H  3  Z    0.000000  -0.003293  -0.000050  -0.002464   0.000000
  118  H  3  X    0.006914   0.000000   0.000000   0.000000  -0.039537
  119  H  3  Y    0.000000  -0.046843   0.095058  -0.203335   0.000000
  120  H  3  Z    0.000000  -0.033283   0.057822  -0.106633   0.000000
  121  H  3  X   -0.150359   0.000000   0.000000   0.000000  -0.571376
  122  H  3  Y    0.000000  -0.113515   0.805849  -0.822858   0.000000
  123  H  3  Z    0.000000  -0.289503   0.595000  -0.325556   0.000000
  124  H  3 XX    0.000000   0.003398  -0.005808   0.004661   0.000000
  125  H  3 YY    0.000000  -0.001610   0.004750  -0.005642   0.000000
  126  H  3 ZZ    0.000000  -0.001788   0.001059   0.000981   0.000000
  127  H  3 XY    0.000914   0.000000   0.000000   0.000000  -0.001319
  128  H  3 XZ    0.000583   0.000000   0.000000   0.000000  -0.001259
  129  H  3 YZ    0.000000  -0.003143   0.003091  -0.007709   0.000000
  130  H  3 XX    0.000000  -0.016094   0.044497  -0.006266   0.000000
  131  H  3 YY    0.000000  -0.002545  -0.048332  -0.019362   0.000000
  132  H  3 ZZ    0.000000   0.018639   0.003834   0.025628   0.000000
  133  H  3 XY   -0.012584   0.000000   0.000000   0.000000  -0.058951
  134  H  3 XZ   -0.022252   0.000000   0.000000   0.000000  -0.031928
  135  H  3 YZ    0.000000   0.003352  -0.025561   0.017770   0.000000
  136  H  4  S    0.000000   0.003644  -0.008083  -0.003813   0.000000
  137  H  4  S    0.000000  -0.160696  -0.413028  -0.589609   0.000000
  138  H  4  S    0.000000  -1.592145  -5.772925  -3.988633   0.000000
  139  H  4  S    0.000000  -0.395943  -6.378179  -2.372474   0.000000
  140  H  4  X    0.002862   0.000000   0.000000   0.000000  -0.009364
  141  H  4  Y    0.000000  -0.000421   0.003201   0.001375   0.000000
  142  H  4  Z    0.000000  -0.003293   0.000050  -0.002464   0.000000
  143  H  4  X    0.006914   0.000000   0.000000   0.000000  -0.039537
  144  H  4  Y    0.000000   0.046843   0.095058   0.203335   0.000000
  145  H  4  Z    0.000000  -0.033283  -0.057822  -0.106633   0.000000
  146  H  4  X   -0.150359   0.000000   0.000000   0.000000  -0.571376
  147  H  4  Y    0.000000   0.113515   0.805849   0.822858   0.000000
  148  H  4  Z    0.000000  -0.289503  -0.595000  -0.325556   0.000000
  149  H  4 XX    0.000000   0.003398   0.005808   0.004661   0.000000
  150  H  4 YY    0.000000  -0.001610  -0.004750  -0.005642   0.000000
  151  H  4 ZZ    0.000000  -0.001788  -0.001059   0.000981   0.000000
  152  H  4 XY   -0.000914   0.000000   0.000000   0.000000   0.001319
  153  H  4 XZ    0.000583   0.000000   0.000000   0.000000  -0.001259
  154  H  4 YZ    0.000000   0.003143   0.003091   0.007709   0.000000
  155  H  4 XX    0.000000  -0.016094  -0.044497  -0.006266   0.000000
  156  H  4 YY    0.000000  -0.002545   0.048332  -0.019362   0.000000
  157  H  4 ZZ    0.000000   0.018639  -0.003834   0.025628   0.000000
  158  H  4 XY    0.012584   0.000000   0.000000   0.000000   0.058951
  159  H  4 XZ   -0.022252   0.000000   0.000000   0.000000  -0.031928
  160  H  4 YZ    0.000000  -0.003352  -0.025561  -0.017770   0.000000

                     16         17         18         19         20
                    0.1742     0.1992     0.2109     0.2183     0.2552
                     A1         B2         B1         A1         A2  
    1  C  1  S   -0.015041   0.000000   0.000000  -0.006389   0.000000
    2  C  1  S   -0.087643   0.000000   0.000000  -0.099434   0.000000
    3  C  1  S   -0.061551   0.000000   0.000000  -0.071094   0.000000
    4  C  1  S    1.846420   0.000000   0.000000   5.087958   0.000000
    5  C  1  S   -1.769263   0.000000   0.000000  -0.321370   0.000000
    6  C  1  X    0.000000   0.000000   0.042326   0.000000   0.000000
    7  C  1  Y    0.000000  -0.067520   0.000000   0.000000   0.000000
    8  C  1  Z    0.015365   0.000000   0.000000   0.052904   0.000000
    9  C  1  X    0.000000   0.000000  -0.067321   0.000000   0.000000
   10  C  1  Y    0.000000   0.003506   0.000000   0.000000   0.000000
   11  C  1  Z   -0.498934   0.000000   0.000000  -0.055331   0.000000
   12  C  1  X    0.000000   0.000000  -0.639077   0.000000   0.000000
   13  C  1  Y    0.000000   0.267921   0.000000   0.000000   0.000000
   14  C  1  Z   -2.554338   0.000000   0.000000   0.444928   0.000000
   15  C  1  X    0.000000   0.000000  -1.549854   0.000000   0.000000
   16  C  1  Y    0.000000   3.390641   0.000000   0.000000   0.000000
   17  C  1  Z    0.583593   0.000000   0.000000   0.294642   0.000000
   18  C  1 XX   -0.003618   0.000000   0.000000  -0.005815   0.000000
   19  C  1 YY    0.021015   0.000000   0.000000   0.012738   0.000000
   20  C  1 ZZ   -0.017397   0.000000   0.000000  -0.006923   0.000000
   21  C  1 XY    0.000000   0.000000   0.000000   0.000000  -0.035524
   22  C  1 XZ    0.000000   0.000000  -0.007806   0.000000   0.000000
   23  C  1 YZ    0.000000  -0.002103   0.000000   0.000000   0.000000
   24  C  1 XX   -0.090634   0.000000   0.000000  -0.277249   0.000000
   25  C  1 YY    0.176491   0.000000   0.000000   0.111985   0.000000
   26  C  1 ZZ   -0.085857   0.000000   0.000000   0.165264   0.000000
   27  C  1 XY    0.000000   0.000000   0.000000   0.000000   0.274941
   28  C  1 XZ    0.000000   0.000000  -0.244409   0.000000   0.000000
   29  C  1 YZ    0.000000   0.517208   0.000000   0.000000   0.000000
   30  C  1 XX   -0.136459   0.000000   0.000000  -0.272179   0.000000
   31  C  1 YY   -0.663935   0.000000   0.000000  -0.693105   0.000000
   32  C  1 ZZ    0.800394   0.000000   0.000000   0.965283   0.000000
   33  C  1 XY    0.000000   0.000000   0.000000   0.000000   0.518935
   34  C  1 XZ    0.000000   0.000000  -1.064567   0.000000   0.000000
   35  C  1 YZ    0.000000   2.456817   0.000000   0.000000   0.000000
   36  C  1 XXX   0.000000   0.000000   0.003261   0.000000   0.000000
   37  C  1 YYY   0.000000  -0.015647   0.000000   0.000000   0.000000
   38  C  1 ZZZ   0.002263   0.000000   0.000000   0.003853   0.000000
   39  C  1 XXY   0.000000   0.003315   0.000000   0.000000   0.000000
   40  C  1 XXZ   0.013991   0.000000   0.000000   0.007242   0.000000
   41  C  1 YYX   0.000000   0.000000   0.005757   0.000000   0.000000
   42  C  1 YYZ  -0.017028   0.000000   0.000000  -0.012412   0.000000
   43  C  1 ZZX   0.000000   0.000000  -0.010132   0.000000   0.000000
   44  C  1 ZZY   0.000000   0.017678   0.000000   0.000000   0.000000
   45  C  1 XYZ   0.000000   0.000000   0.000000   0.000000   0.000727
   46  C  1 XXX   0.000000   0.000000   0.048555   0.000000   0.000000
   47  C  1 YYY   0.000000  -0.091177   0.000000   0.000000   0.000000
   48  C  1 ZZZ   0.006624   0.000000   0.000000   0.253480   0.000000
   49  C  1 XXY   0.000000   0.002911   0.000000   0.000000   0.000000
   50  C  1 XXZ   0.057586   0.000000   0.000000   0.002286   0.000000
   51  C  1 YYX   0.000000   0.000000  -0.001712   0.000000   0.000000
   52  C  1 YYZ  -0.066473   0.000000   0.000000  -0.342365   0.000000
   53  C  1 ZZX   0.000000   0.000000  -0.063432   0.000000   0.000000
   54  C  1 ZZY   0.000000   0.119416   0.000000   0.000000   0.000000
   55  C  1 XYZ   0.000000   0.000000   0.000000   0.000000  -0.148422
   56  O  2  S   -0.016821   0.000000   0.000000  -0.005232   0.000000
   57  O  2  S   -0.021152   0.000000   0.000000   0.022301   0.000000
   58  O  2  S   -0.007996   0.000000   0.000000   0.002846   0.000000
   59  O  2  S    0.613055   0.000000   0.000000  -1.206716   0.000000
   60  O  2  S    3.617830   0.000000   0.000000  -2.372027   0.000000
   61  O  2  X    0.000000   0.000000  -0.112654   0.000000   0.000000
   62  O  2  Y    0.000000   0.067550   0.000000   0.000000   0.000000
   63  O  2  Z    0.033845   0.000000   0.000000  -0.030199   0.000000
   64  O  2  X    0.000000   0.000000  -0.133768   0.000000   0.000000
   65  O  2  Y    0.000000   0.081710   0.000000   0.000000   0.000000
   66  O  2  Z    0.009328   0.000000   0.000000   0.010123   0.000000
   67  O  2  X    0.000000   0.000000   0.322413   0.000000   0.000000
   68  O  2  Y    0.000000  -0.857335   0.000000   0.000000   0.000000
   69  O  2  Z   -0.708824   0.000000   0.000000   0.212086   0.000000
   70  O  2  X    0.000000   0.000000   2.984699   0.000000   0.000000
   71  O  2  Y    0.000000  -3.326287   0.000000   0.000000   0.000000
   72  O  2  Z   -2.900658   0.000000   0.000000   1.033193   0.000000
   73  O  2 XX    0.000751   0.000000   0.000000  -0.000620   0.000000
   74  O  2 YY    0.003088   0.000000   0.000000   0.001308   0.000000
   75  O  2 ZZ   -0.003839   0.000000   0.000000  -0.000687   0.000000
   76  O  2 XY    0.000000   0.000000   0.000000   0.000000  -0.003018
   77  O  2 XZ    0.000000   0.000000   0.000443   0.000000   0.000000
   78  O  2 YZ    0.000000  -0.003975   0.000000   0.000000   0.000000
   79  O  2 XX   -0.007373   0.000000   0.000000  -0.022031   0.000000
   80  O  2 YY   -0.014695   0.000000   0.000000   0.000411   0.000000
   81  O  2 ZZ    0.022067   0.000000   0.000000   0.021620   0.000000
   82  O  2 XY    0.000000   0.000000   0.000000   0.000000  -0.000478
   83  O  2 XZ    0.000000   0.000000   0.006834   0.000000   0.000000
   84  O  2 YZ    0.000000   0.049675   0.000000   0.000000   0.000000
   85  O  2 XX   -0.211978   0.000000   0.000000  -0.075985   0.000000
   86  O  2 YY   -0.083836   0.000000   0.000000   0.116099   0.000000
   87  O  2 ZZ    0.295814   0.000000   0.000000  -0.040115   0.000000
   88  O  2 XY    0.000000   0.000000   0.000000   0.000000   0.008705
   89  O  2 XZ    0.000000   0.000000  -0.435928   0.000000   0.000000
   90  O  2 YZ    0.000000   0.443284   0.000000   0.000000   0.000000
   91  O  2 XXX   0.000000   0.000000   0.004135   0.000000   0.000000
   92  O  2 YYY   0.000000  -0.003889   0.000000   0.000000   0.000000
   93  O  2 ZZZ   0.001656   0.000000   0.000000  -0.002768   0.000000
   94  O  2 XXY   0.000000   0.001026   0.000000   0.000000   0.000000
   95  O  2 XXZ  -0.001624   0.000000   0.000000   0.000304   0.000000
   96  O  2 YYX   0.000000   0.000000   0.002221   0.000000   0.000000
   97  O  2 YYZ  -0.000598   0.000000   0.000000   0.003410   0.000000
   98  O  2 ZZX   0.000000   0.000000  -0.007768   0.000000   0.000000
   99  O  2 ZZY   0.000000   0.004192   0.000000   0.000000   0.000000
  100  O  2 XYZ   0.000000   0.000000   0.000000   0.000000   0.002593
  101  O  2 XXX   0.000000   0.000000  -0.035496   0.000000   0.000000
  102  O  2 YYY   0.000000   0.046395   0.000000   0.000000   0.000000
  103  O  2 ZZZ  -0.035231   0.000000   0.000000  -0.001938   0.000000
  104  O  2 XXY   0.000000   0.008430   0.000000   0.000000   0.000000
  105  O  2 XXZ   0.031710   0.000000   0.000000   0.019740   0.000000
  106  O  2 YYX   0.000000   0.000000  -0.013844   0.000000   0.000000
  107  O  2 YYZ   0.015557   0.000000   0.000000  -0.017140   0.000000
  108  O  2 ZZX   0.000000   0.000000   0.061467   0.000000   0.000000
  109  O  2 ZZY   0.000000  -0.070676   0.000000   0.000000   0.000000
  110  O  2 XYZ   0.000000   0.000000   0.000000   0.000000  -0.006002
  111  H  3  S    0.023637   0.011743   0.000000   0.051552   0.000000
  112  H  3  S   -0.417599  -0.423365   0.000000  -0.671357   0.000000
  113  H  3  S   -2.302277  -1.619342   0.000000   0.318628   0.000000
  114  H  3  S    0.256514   3.462020   0.000000  -0.020752   0.000000
  115  H  3  X    0.000000   0.000000   0.002983   0.000000   0.006515
  116  H  3  Y   -0.001191   0.000081   0.000000  -0.013838   0.000000
  117  H  3  Z   -0.003856  -0.000483   0.000000  -0.003377   0.000000
  118  H  3  X    0.000000   0.000000  -0.006491   0.000000   0.139839
  119  H  3  Y   -0.229180  -0.071643   0.000000  -0.113290   0.000000
  120  H  3  Z   -0.071970  -0.026388   0.000000  -0.085341   0.000000
  121  H  3  X    0.000000   0.000000  -0.296693   0.000000   1.723591
  122  H  3  Y   -1.465721   0.121360   0.000000  -1.256148   0.000000
  123  H  3  Z    0.043800   1.221292   0.000000  -0.014445   0.000000
  124  H  3 XX    0.006088   0.002455   0.000000  -0.003054   0.000000
  125  H  3 YY   -0.008488  -0.000985   0.000000  -0.000864   0.000000
  126  H  3 ZZ    0.002400  -0.001470   0.000000   0.003918   0.000000
  127  H  3 XY    0.000000   0.000000   0.003159   0.000000   0.001694
  128  H  3 XZ    0.000000   0.000000  -0.003387   0.000000   0.002783
  129  H  3 YZ   -0.010879  -0.002476   0.000000  -0.001559   0.000000
  130  H  3 XX    0.073945  -0.096399   0.000000  -0.000640   0.000000
  131  H  3 YY   -0.100500   0.015738   0.000000  -0.055661   0.000000
  132  H  3 ZZ    0.026555   0.080661   0.000000   0.056301   0.000000
  133  H  3 XY    0.000000   0.000000  -0.067762   0.000000   0.220042
  134  H  3 XZ    0.000000   0.000000   0.042810   0.000000   0.115843
  135  H  3 YZ   -0.043503   0.053111   0.000000  -0.077411   0.000000
  136  H  4  S    0.023637  -0.011743   0.000000   0.051552   0.000000
  137  H  4  S   -0.417599   0.423365   0.000000  -0.671357   0.000000
  138  H  4  S   -2.302277   1.619342   0.000000   0.318628   0.000000
  139  H  4  S    0.256514  -3.462020   0.000000  -0.020752   0.000000
  140  H  4  X    0.000000   0.000000   0.002983   0.000000  -0.006515
  141  H  4  Y    0.001191   0.000081   0.000000   0.013838   0.000000
  142  H  4  Z   -0.003856   0.000483   0.000000  -0.003377   0.000000
  143  H  4  X    0.000000   0.000000  -0.006491   0.000000  -0.139839
  144  H  4  Y    0.229180  -0.071643   0.000000   0.113290   0.000000
  145  H  4  Z   -0.071970   0.026388   0.000000  -0.085341   0.000000
  146  H  4  X    0.000000   0.000000  -0.296693   0.000000  -1.723591
  147  H  4  Y    1.465721   0.121360   0.000000   1.256148   0.000000
  148  H  4  Z    0.043800  -1.221292   0.000000  -0.014445   0.000000
  149  H  4 XX    0.006088  -0.002455   0.000000  -0.003054   0.000000
  150  H  4 YY   -0.008488   0.000985   0.000000  -0.000864   0.000000
  151  H  4 ZZ    0.002400   0.001470   0.000000   0.003918   0.000000
  152  H  4 XY    0.000000   0.000000  -0.003159   0.000000   0.001694
  153  H  4 XZ    0.000000   0.000000  -0.003387   0.000000  -0.002783
  154  H  4 YZ    0.010879  -0.002476   0.000000   0.001559   0.000000
  155  H  4 XX    0.073945   0.096399   0.000000  -0.000640   0.000000
  156  H  4 YY   -0.100500  -0.015738   0.000000  -0.055661   0.000000
  157  H  4 ZZ    0.026555  -0.080661   0.000000   0.056301   0.000000
  158  H  4 XY    0.000000   0.000000   0.067762   0.000000   0.220042
  159  H  4 XZ    0.000000   0.000000   0.042810   0.000000  -0.115843
  160  H  4 YZ    0.043503   0.053111   0.000000   0.077411   0.000000

                     21         22         23         24         25
                    0.2566     0.2816     0.3218     0.3386     0.3387
                     A1         B2         B1         B2         A1  
    1  C  1  S    0.004554   0.000000   0.000000   0.000000  -0.023561
    2  C  1  S    0.067373   0.000000   0.000000   0.000000  -0.091353
    3  C  1  S    0.053174   0.000000   0.000000   0.000000  -0.048155
    4  C  1  S    0.140435   0.000000   0.000000   0.000000   2.368763
    5  C  1  S   -0.938677   0.000000   0.000000   0.000000  -7.226739
    6  C  1  X    0.000000   0.000000   0.143626   0.000000   0.000000
    7  C  1  Y    0.000000  -0.107008   0.000000   0.065600   0.000000
    8  C  1  Z    0.015917   0.000000   0.000000   0.000000   0.043918
    9  C  1  X    0.000000   0.000000   0.425185   0.000000   0.000000
   10  C  1  Y    0.000000   0.366403   0.000000   0.004629   0.000000
   11  C  1  Z   -0.082662   0.000000   0.000000   0.000000  -0.588635
   12  C  1  X    0.000000   0.000000   3.893971   0.000000   0.000000
   13  C  1  Y    0.000000   2.745067   0.000000   3.105958   0.000000
   14  C  1  Z   -3.904029   0.000000   0.000000   0.000000  -1.849853
   15  C  1  X    0.000000   0.000000   1.279001   0.000000   0.000000
   16  C  1  Y    0.000000  -4.358376   0.000000   4.218133   0.000000
   17  C  1  Z   -2.444012   0.000000   0.000000   0.000000   0.608513
   18  C  1 XX    0.009006   0.000000   0.000000   0.000000  -0.004568
   19  C  1 YY    0.015433   0.000000   0.000000   0.000000   0.006745
   20  C  1 ZZ   -0.024439   0.000000   0.000000   0.000000  -0.002178
   21  C  1 XY    0.000000   0.000000   0.000000   0.000000   0.000000
   22  C  1 XZ    0.000000   0.000000   0.006620   0.000000   0.000000
   23  C  1 YZ    0.000000  -0.017580   0.000000   0.000018   0.000000
   24  C  1 XX    0.109838   0.000000   0.000000   0.000000  -0.100847
   25  C  1 YY    0.037682   0.000000   0.000000   0.000000   0.784705
   26  C  1 ZZ   -0.147520   0.000000   0.000000   0.000000  -0.683859
   27  C  1 XY    0.000000   0.000000   0.000000   0.000000   0.000000
   28  C  1 XZ    0.000000   0.000000  -0.171964   0.000000   0.000000
   29  C  1 YZ    0.000000  -0.443147   0.000000   0.140378   0.000000
   30  C  1 XX    0.352696   0.000000   0.000000   0.000000  -0.429021
   31  C  1 YY    0.664612   0.000000   0.000000   0.000000   4.665331
   32  C  1 ZZ   -1.017309   0.000000   0.000000   0.000000  -4.236310
   33  C  1 XY    0.000000   0.000000   0.000000   0.000000   0.000000
   34  C  1 XZ    0.000000   0.000000  -0.822001   0.000000   0.000000
   35  C  1 YZ    0.000000  -0.681067   0.000000  -0.333309   0.000000
   36  C  1 XXX   0.000000   0.000000   0.018213   0.000000   0.000000
   37  C  1 YYY   0.000000   0.010625   0.000000  -0.006371   0.000000
   38  C  1 ZZZ  -0.010804   0.000000   0.000000   0.000000  -0.022739
   39  C  1 XXY   0.000000  -0.024901   0.000000   0.012590   0.000000
   40  C  1 XXZ   0.002040   0.000000   0.000000   0.000000   0.037731
   41  C  1 YYX   0.000000   0.000000  -0.009102   0.000000   0.000000
   42  C  1 YYZ   0.012455   0.000000   0.000000   0.000000  -0.007224
   43  C  1 ZZX   0.000000   0.000000  -0.015333   0.000000   0.000000
   44  C  1 ZZY   0.000000   0.010646   0.000000  -0.004042   0.000000
   45  C  1 XYZ   0.000000   0.000000   0.000000   0.000000   0.000000
   46  C  1 XXX   0.000000   0.000000  -0.212016   0.000000   0.000000
   47  C  1 YYY   0.000000   0.166792   0.000000   0.430123   0.000000
   48  C  1 ZZZ  -0.096056   0.000000   0.000000   0.000000   0.132722
   49  C  1 XXY   0.000000  -0.020400   0.000000  -0.130493   0.000000
   50  C  1 XXZ   0.132017   0.000000   0.000000   0.000000  -0.045649
   51  C  1 YYX   0.000000   0.000000   0.178443   0.000000   0.000000
   52  C  1 YYZ  -0.003144   0.000000   0.000000   0.000000  -0.132416
[...]
   34  C  1 XZ    0.000000   0.000000   0.000000
   35  C  1 YZ    0.000000   0.000000   0.146653
   36  C  1 XXX   0.000000   0.000000   0.000000
   37  C  1 YYY   0.000000   0.000000   0.019816
   38  C  1 ZZZ  -0.135246   0.086502   0.000000
   39  C  1 XXY   0.000000   0.000000   0.058582
   40  C  1 XXZ   0.124990  -0.024018   0.000000
   41  C  1 YYX   0.000000   0.000000   0.000000
   42  C  1 YYZ   0.056462  -0.092037   0.000000
   43  C  1 ZZX   0.000000   0.000000   0.000000
   44  C  1 ZZY   0.000000   0.000000  -0.085168
   45  C  1 XYZ   0.000000   0.000000   0.000000
   46  C  1 XXX   0.000000   0.000000   0.000000
   47  C  1 YYY   0.000000   0.000000  -0.033699
   48  C  1 ZZZ  -0.035087  -0.212462   0.000000
   49  C  1 XXY   0.000000   0.000000   0.038387
   50  C  1 XXZ   0.101449   0.145900   0.000000
   51  C  1 YYX   0.000000   0.000000   0.000000
   52  C  1 YYZ  -0.054376   0.139148   0.000000
   53  C  1 ZZX   0.000000   0.000000   0.000000
   54  C  1 ZZY   0.000000   0.000000   0.006824
   55  C  1 XYZ   0.000000   0.000000   0.000000
   56  O  2  S   -0.002966   0.068502   0.000000
   57  O  2  S    0.053851   0.134174   0.000000
   58  O  2  S    0.077084  -0.005493   0.000000
   59  O  2  S   -0.017904   0.036626   0.000000
   60  O  2  S   -0.350777   0.189249   0.000000
   61  O  2  X    0.000000   0.000000   0.000000
   62  O  2  Y    0.000000   0.000000  -0.349163
   63  O  2  Z   -0.070516  -0.067739   0.000000
   64  O  2  X    0.000000   0.000000   0.000000
   65  O  2  Y    0.000000   0.000000  -0.103560
   66  O  2  Z    0.073257  -0.140878   0.000000
   67  O  2  X    0.000000   0.000000   0.000000
   68  O  2  Y    0.000000   0.000000  -0.187619
   69  O  2  Z    0.162720  -0.003437   0.000000
   70  O  2  X    0.000000   0.000000   0.000000
   71  O  2  Y    0.000000   0.000000   0.173477
   72  O  2  Z    0.172947  -0.080340   0.000000
   73  O  2 XX   -0.262015   0.063112   0.000000
   74  O  2 YY    0.036965   0.014645   0.000000
   75  O  2 ZZ    0.225050  -0.077756   0.000000
   76  O  2 XY    0.000000   0.000000   0.000000
   77  O  2 XZ    0.000000   0.000000   0.000000
   78  O  2 YZ    0.000000   0.000000  -0.038048
   79  O  2 XX    0.010484   0.111245   0.000000
   80  O  2 YY    0.092170  -0.016504   0.000000
   81  O  2 ZZ   -0.102653  -0.094741   0.000000
   82  O  2 XY    0.000000   0.000000   0.000000
   83  O  2 XZ    0.000000   0.000000   0.000000
   84  O  2 YZ    0.000000   0.000000  -0.109993
   85  O  2 XX    0.029889  -0.007356   0.000000
   86  O  2 YY    0.010953   0.043414   0.000000
   87  O  2 ZZ   -0.040842  -0.036058   0.000000
   88  O  2 XY    0.000000   0.000000   0.000000
   89  O  2 XZ    0.000000   0.000000   0.000000
   90  O  2 YZ    0.000000   0.000000  -0.054127
   91  O  2 XXX   0.000000   0.000000   0.000000
   92  O  2 YYY   0.000000   0.000000  -0.003968
   93  O  2 ZZZ  -0.111327  -0.099192   0.000000
   94  O  2 XXY   0.000000   0.000000  -0.000732
   95  O  2 XXZ  -0.007918  -0.024897   0.000000
   96  O  2 YYX   0.000000   0.000000   0.000000
   97  O  2 YYZ   0.157279   0.157976   0.000000
   98  O  2 ZZX   0.000000   0.000000   0.000000
   99  O  2 ZZY   0.000000   0.000000   0.006055
  100  O  2 XYZ   0.000000   0.000000   0.000000
  101  O  2 XXX   0.000000   0.000000   0.000000
  102  O  2 YYY   0.000000   0.000000  -0.045711
  103  O  2 ZZZ   0.097061  -0.122252   0.000000
  104  O  2 XXY   0.000000   0.000000  -0.052534
  105  O  2 XXZ  -0.169550   0.094882   0.000000
  106  O  2 YYX   0.000000   0.000000   0.000000
  107  O  2 YYZ   0.039330   0.069136   0.000000
  108  O  2 ZZX   0.000000   0.000000   0.000000
  109  O  2 ZZY   0.000000   0.000000   0.113862
  110  O  2 XYZ   0.000000   0.000000   0.000000
  111  H  3  S    0.148551  -0.029647   0.078445
  112  H  3  S   -0.015939  -0.055499   0.032957
  113  H  3  S    0.011776   0.021357  -0.136925
  114  H  3  S    0.047740  -0.047007  -0.028746
  115  H  3  X    0.000000   0.000000   0.000000
  116  H  3  Y    0.059898  -0.168299  -0.063974
  117  H  3  Z   -0.139993   0.128736  -0.186940
  118  H  3  X    0.000000   0.000000   0.000000
  119  H  3  Y   -0.131002  -0.072725  -0.242254
  120  H  3  Z   -0.099253   0.057272  -0.176957
  121  H  3  X    0.000000   0.000000   0.000000
  122  H  3  Y   -0.078118  -0.001804  -0.028669
  123  H  3  Z    0.049696   0.144127  -0.130777
  124  H  3 XX   -0.039234   0.235167   0.058805
  125  H  3 YY    0.229256   0.011831  -0.107644
  126  H  3 ZZ   -0.190022  -0.246998   0.048839
  127  H  3 XY    0.000000   0.000000   0.000000
  128  H  3 XZ    0.000000   0.000000   0.000000
  129  H  3 YZ   -0.174154   0.008929  -0.039108
  130  H  3 XX    0.066243  -0.037155   0.030996
  131  H  3 YY    0.138401   0.058565   0.070963
  132  H  3 ZZ   -0.204644  -0.021410  -0.101958
  133  H  3 XY    0.000000   0.000000   0.000000
  134  H  3 XZ    0.000000   0.000000   0.000000
  135  H  3 YZ   -0.064032  -0.362126   0.073044
  136  H  4  S    0.148551  -0.029647  -0.078445
  137  H  4  S   -0.015939  -0.055499  -0.032957
  138  H  4  S    0.011776   0.021357   0.136925
  139  H  4  S    0.047740  -0.047007   0.028746
  140  H  4  X    0.000000   0.000000   0.000000
  141  H  4  Y   -0.059898   0.168299  -0.063974
  142  H  4  Z   -0.139993   0.128736   0.186940
  143  H  4  X    0.000000   0.000000   0.000000
  144  H  4  Y    0.131002   0.072725  -0.242254
  145  H  4  Z   -0.099253   0.057272   0.176957
  146  H  4  X    0.000000   0.000000   0.000000
  147  H  4  Y    0.078118   0.001804  -0.028669
  148  H  4  Z    0.049696   0.144127   0.130777
  149  H  4 XX   -0.039234   0.235167  -0.058805
  150  H  4 YY    0.229256   0.011831   0.107644
  151  H  4 ZZ   -0.190022  -0.246998  -0.048839
  152  H  4 XY    0.000000   0.000000   0.000000
  153  H  4 XZ    0.000000   0.000000   0.000000
  154  H  4 YZ    0.174154  -0.008929  -0.039108
  155  H  4 XX    0.066243  -0.037155  -0.030996
  156  H  4 YY    0.138401   0.058565  -0.070963
  157  H  4 ZZ   -0.204644  -0.021410   0.101958
  158  H  4 XY    0.000000   0.000000   0.000000
  159  H  4 XZ    0.000000   0.000000   0.000000
  160  H  4 YZ    0.064032   0.362126   0.073044

 THE CIS NATURAL ORBITALS HAVE BEEN PUNCHED.

 ..... DONE WITH CIS ENERGY .....

 CPU     0: STEP CPU TIME=    55.39 TOTAL CPU TIME=       65.9 (    1.1 MIN)
 TOTAL WALL CLOCK TIME=       72.9 SECONDS, CPU UTILIZATION IS  90.40%

     -------------------------------------------------------------
     CIS   PROPERTIES...FOR THE WAVEFUNCTION OF EXCITED STATE    7
                 USING THE EXPECTATION VALUE DENSITY
     -------------------------------------------------------------

          -----------------
          ENERGY COMPONENTS
          -----------------

         WAVEFUNCTION NORMALIZATION =       1.0000000000

                ONE ELECTRON ENERGY =    -216.6773064822
                TWO ELECTRON ENERGY =      71.3690415307
           NUCLEAR REPULSION ENERGY =      31.7694835641
                                      ------------------
                       TOTAL ENERGY =    -113.5387813875

 ELECTRON-ELECTRON POTENTIAL ENERGY =      71.3690415307
  NUCLEUS-ELECTRON POTENTIAL ENERGY =    -330.1032559991
   NUCLEUS-NUCLEUS POTENTIAL ENERGY =      31.7694835641
                                      ------------------
             TOTAL POTENTIAL ENERGY =    -226.9647309044
               TOTAL KINETIC ENERGY =     113.4259495169
                 VIRIAL RATIO (V/T) =       2.0009947624

          ---------------------------------------
          MULLIKEN AND LOWDIN POPULATION ANALYSES
          ---------------------------------------

               ----- POPULATIONS IN EACH AO -----
                             MULLIKEN      LOWDIN
              1  C  1  S      1.95737     1.52124
              2  C  1  S      0.83948     0.41561
              3  C  1  S      0.16935     0.22981
              4  C  1  S      0.55927     0.10446
              5  C  1  S      0.01681     0.03139
              6  C  1  X      0.30487     0.25313
              7  C  1  Y      0.29155     0.22074
              8  C  1  Z      0.21568     0.16688
              9  C  1  X      0.57048     0.19564
             10  C  1  Y      0.60174     0.22322
             11  C  1  Z      0.30747     0.17352
             12  C  1  X      0.33905     0.11133
             13  C  1  Y      0.28713     0.10786
             14  C  1  Z      0.05362     0.08491
             15  C  1  X      0.02865     0.02344
             16  C  1  Y     -0.00091     0.01156
             17  C  1  Z     -0.00049     0.00993
             18  C  1 XX      0.00994     0.05352
             19  C  1 YY      0.00212     0.07514
             20  C  1 ZZ      0.00000     0.10206
             21  C  1 XY      0.01002     0.00000
             22  C  1 XZ      0.02221     0.01106
             23  C  1 YZ      0.00000     0.02585
             24  C  1 XX      0.00504     0.02361
             25  C  1 YY      0.00915     0.07839
             26  C  1 ZZ     -0.00002     0.12959
             27  C  1 XY      0.04148     0.00002
             28  C  1 XZ      0.10903     0.07915
             29  C  1 YZ      0.00000     0.18017
             30  C  1 XX     -0.01356     0.00120
             31  C  1 YY      0.00116     0.00992
             32  C  1 ZZ      0.00019     0.04138
             33  C  1 XY      0.00506     0.00008
             34  C  1 XZ      0.06091     0.04564
             35  C  1 YZ      0.00000     0.09757
             36  C  1 XXX     0.00001     0.11954
             37  C  1 YYY     0.00086     0.14297
             38  C  1 ZZZ     0.00501     0.14471
             39  C  1 XXY     0.00311     0.04884
             40  C  1 XXZ     0.00612     0.03347
             41  C  1 YYX     0.00000     0.05026
             42  C  1 YYZ     0.00042     0.05369
             43  C  1 ZZX     0.00000     0.07790
             44  C  1 ZZY     0.00000     0.09625
             45  C  1 XYZ     0.00000     0.00001
             46  C  1 XXX    -0.00005     0.06723
             47  C  1 YYY     0.00224     0.09118
             48  C  1 ZZZ     0.00746     0.12216
             49  C  1 XXY     0.00164     0.02243
             50  C  1 XXZ     0.01010     0.01246
             51  C  1 YYX    -0.00002     0.02854
             52  C  1 YYZ     0.00105     0.03667
             53  C  1 ZZX     0.00000     0.08023
             54  C  1 ZZY     0.00000     0.09627
             55  C  1 XYZ     0.00000     0.00005
             56  O  2  S      1.94899     1.55917
             57  O  2  S      0.99518     0.51814
             58  O  2  S      0.22935     0.34711
             59  O  2  S      0.57776     0.17882
             60  O  2  S      0.05312     0.04859
             61  O  2  X      0.43505     0.39637
             62  O  2  Y      0.51536     0.46903
             63  O  2  Z      0.22899     0.20037
             64  O  2  X      0.73060     0.30822
             65  O  2  Y      0.84198     0.35764
             66  O  2  Z      0.39802     0.18483
             67  O  2  X      0.41656     0.16333
             68  O  2  Y      0.48430     0.16127
             69  O  2  Z      0.14021     0.11804
             70  O  2  X      0.00603     0.03254
             71  O  2  Y      0.02465     0.02418
             72  O  2  Z      0.00208     0.03773
             73  O  2 XX      0.00178     0.11928
             74  O  2 YY      0.00003     0.11982
             75  O  2 ZZ      0.00004     0.12848
             76  O  2 XY      0.00148     0.00005
             77  O  2 XZ      0.00084     0.00113
             78  O  2 YZ      0.00000     0.00051
             79  O  2 XX      0.00858     0.08385
             80  O  2 YY      0.00017     0.08317
             81  O  2 ZZ      0.00027     0.11863
             82  O  2 XY      0.01513     0.00023
             83  O  2 XZ      0.00760     0.02242
             84  O  2 YZ      0.00000     0.00970
             85  O  2 XX     -0.00277     0.00818
             86  O  2 YY      0.00017     0.00936
             87  O  2 ZZ      0.00037     0.06686
             88  O  2 XY      0.01746     0.00030
             89  O  2 XZ      0.00493     0.06323
             90  O  2 YZ      0.00000     0.05581
             91  O  2 XXX     0.00001     0.19082
             92  O  2 YYY     0.00000     0.22028
             93  O  2 ZZZ     0.00103     0.12615
             94  O  2 XXY     0.00057     0.09923
             95  O  2 XXZ     0.00060     0.04518
             96  O  2 YYX     0.00000     0.08257
             97  O  2 YYZ     0.00001     0.04420
             98  O  2 ZZX     0.00000     0.09089
             99  O  2 ZZY     0.00000     0.10386
            100  O  2 XYZ     0.00000     0.00000
            101  O  2 XXX     0.00000     0.10312
            102  O  2 YYY    -0.00002     0.11178
            103  O  2 ZZZ     0.00248     0.10880
            104  O  2 XXY    -0.00026     0.05032
            105  O  2 XXZ     0.00054     0.02811
            106  O  2 YYX     0.00000     0.04253
            107  O  2 YYZ    -0.00001     0.02991
            108  O  2 ZZX     0.00000     0.08589
            109  O  2 ZZY     0.00000     0.07187
            110  O  2 XYZ     0.00000     0.00001
            111  H  3  S      0.25903     0.18968
            112  H  3  S      0.35944     0.18596
            113  H  3  S     -0.11421     0.07262
            114  H  3  S     -0.00181     0.01119
            115  H  3  X      0.00165     0.00241
            116  H  3  Y      0.00521     0.00689
            117  H  3  Z      0.00238     0.00383
            118  H  3  X      0.01437     0.03193
            119  H  3  Y      0.00090     0.03718
            120  H  3  Z     -0.00214     0.02041
            121  H  3  X      0.00916     0.05171
            122  H  3  Y      0.00636     0.05247
            123  H  3  Z     -0.00839     0.02384
            124  H  3 XX      0.00047     0.05932
            125  H  3 YY      0.00037     0.08960
            126  H  3 ZZ      0.00061     0.07276
            127  H  3 XY      0.00029     0.00313
            128  H  3 XZ      0.00055     0.00133
            129  H  3 YZ      0.00000     0.00585
            130  H  3 XX     -0.00057     0.01960
            131  H  3 YY      0.00079     0.06006
            132  H  3 ZZ      0.00091     0.03373
            133  H  3 XY      0.00125     0.02842
            134  H  3 XZ     -0.00216     0.01523
            135  H  3 YZ      0.00000     0.02294
            136  H  4  S      0.25903     0.18968
            137  H  4  S      0.35944     0.18596
            138  H  4  S     -0.11421     0.07262
            139  H  4  S     -0.00181     0.01119
            140  H  4  X      0.00165     0.00241
            141  H  4  Y      0.00521     0.00689
            142  H  4  Z      0.00238     0.00383
            143  H  4  X      0.01437     0.03193
            144  H  4  Y      0.00090     0.03718
            145  H  4  Z     -0.00214     0.02041
            146  H  4  X      0.00916     0.05171
            147  H  4  Y      0.00636     0.05247
            148  H  4  Z     -0.00839     0.02384
            149  H  4 XX      0.00047     0.05932
            150  H  4 YY      0.00037     0.08960
            151  H  4 ZZ      0.00061     0.07276
            152  H  4 XY      0.00029     0.00313
            153  H  4 XZ      0.00055     0.00133
            154  H  4 YZ      0.00000     0.00585
            155  H  4 XX     -0.00057     0.01960
            156  H  4 YY      0.00079     0.06006
            157  H  4 ZZ      0.00091     0.03373
            158  H  4 XY      0.00125     0.02842
            159  H  4 XZ     -0.00216     0.01523
            160  H  4 YZ      0.00000     0.02294

          ----- MULLIKEN ATOMIC OVERLAP POPULATIONS -----
          (OFF-DIAGONAL ELEMENTS NEED TO BE MULTIPLIED BY 2)

             1           2           3           4

    1    5.9630442
    2    0.2464072   7.9360302
    3    0.3161694  -0.0465826   0.2430599
    4    0.3161694  -0.0465826   0.0218221   0.2430599

          TOTAL MULLIKEN AND LOWDIN ATOMIC POPULATIONS
       ATOM         MULL.POP.    CHARGE          LOW.POP.     CHARGE
    1 C             6.841790   -0.841790         6.163886   -0.163886
    2 O             8.089272   -0.089272         7.631927    0.368073
    3 H             0.534469    0.465531         1.102093   -0.102093
    4 H             0.534469    0.465531         1.102093   -0.102093

          MULLIKEN SPHERICAL HARMONIC POPULATIONS
       ATOM           S       P       D      F      G      H      I    TOTAL
    1 C             3.54    3.00    0.26   0.04   0.00   0.00   0.00    6.84
    2 O             3.80    4.22    0.06   0.00   0.00   0.00   0.00    8.09
    3 H             0.50    0.03    0.00   0.00   0.00   0.00   0.00    0.53
    4 H             0.50    0.03    0.00   0.00   0.00   0.00   0.00    0.53

          ---------------------
          ELECTROSTATIC MOMENTS
          ---------------------

 POINT   1           X           Y           Z (BOHR)    CHARGE
                 0.000000    0.000000    0.121034        0.00 (A.U.)
         DX          DY          DZ         /D/  (DEBYE)
     0.000000    0.000000    0.364210    0.364210

          ----------------
          ELECTRON DENSITY
          ----------------
  POINT      X         Y         Z             DENSITY
                     (BOHR)                    (A.U.)
     1     0.00000   0.00000   0.00000         0.367322
     2     0.00000   0.47243   0.00000         0.297549
     3     0.00000   0.94486   0.00000         0.164529
     4     0.00000   1.41729   0.00000         0.070537
     5     0.00000   1.88973   0.00000         0.027450
     6     0.47243   0.00000   0.00000         0.310190
     7     0.47243   0.47243   0.00000         0.251588
     8     0.47243   0.94486   0.00000         0.140742
     9     0.47243   1.41729   0.00000         0.061749
    10     0.47243   1.88973   0.00000         0.024634
    11     0.94486   0.00000   0.00000         0.184857
    12     0.94486   0.47243   0.00000         0.152429
    13     0.94486   0.94486   0.00000         0.089668
    14     0.94486   1.41729   0.00000         0.042293
    15     0.94486   1.88973   0.00000         0.018083
    16     1.41729   0.00000   0.00000         0.084234
    17     1.41729   0.47243   0.00000         0.071693
    18     1.41729   0.94486   0.00000         0.045857
    19     1.41729   1.41729   0.00000         0.024053
    20     1.41729   1.88973   0.00000         0.011285
    21     1.88973   0.00000   0.00000         0.034197
    22     1.88973   0.47243   0.00000         0.030082
    23     1.88973   0.94486   0.00000         0.020943
    24     1.88973   1.41729   0.00000         0.012176
    25     1.88973   1.88973   0.00000         0.006254
 ...... END OF PROPERTY EVALUATION ......
 CPU     0: STEP CPU TIME=     0.03 TOTAL CPU TIME=       66.0 (    1.1 MIN)
 TOTAL WALL CLOCK TIME=       73.0 SECONDS, CPU UTILIZATION IS  90.41%
               2689379  WORDS OF DYNAMIC MEMORY USED
 EXECUTION OF GAMESS TERMINATED NORMALLY Tue Aug  5 17:14:39 2014
 DDI: 263624 bytes (0.3 MB / 0 MWords) used by master data server.

 ----------------------------------------
 CPU timing information for all processes
 ========================================
 0: 65.576 + 0.424 = 66.00
 1: 66.696 + 0.64 = 66.760
 2: 73.468 + 0.792 = 74.260
 3: 72.888 + 0.772 = 73.660
 ----------------------------------------
unset echo
----- accounting info -----
Files used on the master node qcw09 were:
-rw-r--r-- 1 jochen19 zedat    4320 Aug  5 17:13 /scratch/jochen19/tmp/formaldehyde.F05
-rw-r--r-- 1 jochen19 zedat 3991840 Aug  5 17:14 /scratch/jochen19/tmp/formaldehyde.F10
-rw-r--r-- 1 jochen19 zedat  124960 Aug  5 17:14 /scratch/jochen19/tmp/formaldehyde.F12
-rw-r--r-- 1 jochen19 zedat       6 Aug  5 17:13 /scratch/jochen19/tmp/formaldehyde.nodes.mpd
ls-F: No match.
