[Molden Format]
[Molpro variables]
_NUMVAR=  792.0000000000000    
_AVOGAD= 0.6022136736000000E+24
_BOLTZ= 0.1380658000000000E-22
_CLIGHT=  29979245800.00000    
_EV2006= 0.3674930886769165E-01
_EV= 0.3674932534394180E-01
_ENULL= 0.8854187817000000E-11
_KJOULE= 0.3808798324128737E-03
_KJOULE/MOL= 0.3808798324128737E-03
_CM= 0.4556335267302901E-05
_CM-1= 0.4556335267302901E-05
_DEB2SI= 0.3335641000000000E-29
_AMU2AU=  1822.888390000000    
_KCAL= 0.1593601117815568E-02
_KCAL/MOL= 0.1593601117815568E-02
_KELVIN2006= 0.3166828861084835E-05
_KELVIN= 0.3166814820820034E-05
_JOULE= 0.4359748200000000E-17
_HERTZ2006= 0.1519829850815779E-15
_HERTZ= 0.1519829846011223E-15
_HZ2006= 0.1519829850815779E-15
_HZ= 0.1519829846011223E-15
_JPCAL=  4.184000000000000    
_PLANCK= 0.6626075540000000E-33
_TOA2006= 0.5291772490000000    
_TOA= 0.5291772090000000    
_TOANG2006= 0.5291772490000000    
_TOANG= 0.5291772090000000    
_TORAD= 0.1745329251994330E-01
_TOCM=  219474.6306700000    
_TODEBYE=  2.541580000000000    
_TOEV2006=  27.21139610000000    
_TOE= 0.4803242000000000E-09
_TOEV=  27.21138390000000    
_TOHERTZ2006=  6579683899900000.    
_TOHERTZ=  6579683920700000.    
_TOHZ2006=  6579683899900000.    
_TOHZ=  6579683920700000.    
_TOK2006=  315773.3000000000    
_TOK=  315774.7000000000    
_TOKCAL=  627.5096000000000    
_TOKELVIN2006=  315773.3000000000    
_TOKELVIN=  315774.7000000000    
_TOKJ=  2625.500000000000    
_TOKJOULE=  2625.500000000000    
_TOKG= 0.1660565586000000E-26
_ANG2006=  1.889725988578923    
_ANG=  1.889726131421507    
_ANGSTROM2006=  1.889725988578923    
_ANGSTROM=  1.889726131421507    
_RPAREF=  0.000000000000000    
_RPADISS=  0.000000000000000    
_IGNORE_UNDEF=  2.000000000000000    
_STRICTCHECK=  0.000000000000000    
_SEW_ONEEL=  0.000000000000000    
_CPPDONE=FALSE
_DKROLL_DONE=  0.000000000000000    
_FOCKDONE=TRUE
_GRADONE=FALSE
_HESSDONE=FALSE
_INTDONE=TRUE
_SCFDONE=TRUE
_MODUL_BLOCK=FALSE
_MODUL_CUDA=FALSE
_MODUL_SLATER=FALSE
_MODUL_MRCC=FALSE
_MODUL_NBO6=FALSE
_MODUL_NECI=TRUE
_MODUL_AIMS=TRUE
_MRCC_EXEC=
_FITC_AO_SAVED=FALSE
_FITC_MO_SAVED=FALSE
_SHARED_FS=TRUE
_LSTYP=SEWARD
_INTYP=INTS
_GEOMTYP=ZMAT
_GRADTYP=ALASKA
_DIRECT=FALSE
_DKHO=-1.0000000000000000    
_SYNCM=  0.000000000000000    
_BASIS=CC-PVDZ
_ZORIENT= 1.0000000000000000    
_NELEC=  20.00000000000000    
!SPIN=  0.000000000000000    
_OPTCONV= 0.1172122633728726E-02
_QSDSTEP=  0.000000000000000    
_QSDIRC=  0.000000000000000    
_PROGRAM=OPTG
_CPUSTEP= 0.1000000000000156E-01
_SYSSTEP=  0.000000000000000    
_WALLSTEP= 0.2000000000000000E-01
!DFSCF=  0.000000000000000    
!SCSGRD=  0.000000000000000    
_BASINP=  610.0000000000000    
_CPUTOT=  29.90000000000000    
_CPUSORT= 0.1299999999999990    
_SYSSORT= 0.5000000000000004E-01
_WALLSORT= 0.1799999997019768    
_DFTEXFAC= 1.0000000000000000    
_DMX=  0.000000000000000    
_DMY= 0.8818965704965613    
_DMZ=  0.000000000000000    
_DMX_SCF=  0.000000000000000    
_DMY_SCF= 0.8818965704965613    
_DMZ_SCF=  0.000000000000000    
_EHOMO=-0.7686699436859731    
_ELUMO=-0.1137127393769308    
_ENERGY= -115.0145423692887    
_ENUC=  59.56309523205363    
_EPS1= -11.57855279851816    
_EPS2= -11.57721708670420    
_EPS3=-0.8552208454521564    
_EPS4=-0.1464245025527789    
_GRADENERG= -115.0145422917591    
_GRADEXFAC=  9999.000000000000    
_GRADMETHOD= 1.0000000000000000    
_NMRMETHOD=  0.000000000000000    
_VIRIAL=-0.2675996355507259E-03
!GRID_FREEZE=-1.0000000000000000    
_ITERATIONS=  8.000000000000000    
_LASTNELEC=  20.00000000000000    
_LASTSPIN=  0.000000000000000    
_LASTSYM= 1.0000000000000000    
_MPP_PROG=  0.000000000000000    
_NPROC_MPP= 1.0000000000000000    
_NPROC_MPPX= 1.0000000000000000    
_NPROC_SMP= 1.0000000000000000    
_NUMSTEP=  0.000000000000000    
_OPTCONVMX= 0.1136390383374524E-02
_OPTCONVRMS= 0.4785170614337477E-03
_OPTGRAD= 0.2735959316507853E-03
_OPTGRADMX= 0.1909851722977593E-03
_OPTGRADRMS= 0.2279966097089878E-04
_OPTSTEP=  9.000000000000000    
_ORBITAL=  2100.200000000000    
_PI=  3.141592653589793    
_SEIG_MIN= 0.1785130262103492E-02
_SEWPROP=TRUE
_STATUS= 1.0000000000000000    
_SYSTOT=  1.820000000000000    
_VERSION=  2012001.000000000    
_WALLTOT=  32.61000000000000    
_DATE=09-Jun-15
_LASTORB=RHF
_MACHINE=Linux-2.6.32-504.16.2.el6.x86_64/qc005(x86_64) 64 bit serial version
_OUTPUT=/home/vincpohl/project.orbkit/c3h3/c3h3.xml
_PGROUP=C2v
_TIME=15:55:25
_LIBMOL=/cm/shared/apps/molpro/2012.1.4openmp/molpros_2012_1_Linux_x86_64_i8/lib/
!VIBCNT=  0.000000000000000    
!RGHFCNT=  0.000000000000000    
!SURFREC=  0.000000000000000    
!POLYREC=  0.000000000000000    
!DIPREC=  0.000000000000000    
!VSCFREC=  0.000000000000000    
!VCIREC=  0.000000000000000    
!PVCIREC=  0.000000000000000    
!VMP2REC=  0.000000000000000    
!VMCSCFREC=  0.000000000000000    
!VMRCIREC=  0.000000000000000    
!VIBINFO=  0.000000000000000    
!GAREC=  0.000000000000000    
!SCFORB=  21002.00000000000    
!NEWMOL=  0.000000000000000    
!NEWSYM=  0.000000000000000    
_SLFILES=slscratch
_NGSSTO=  9.000000000000000    
_SIN=SIN
_COS=COS
_TAN=TAN
_ACOS=ACOS
_ASIN=ASIN
_ATAN=ATAN
_COSH=COSH
_SINH=SINH
_TANH=TANH
_ABS=ABS
_MOD=MOD
_ERF=ERF
_REFC=REFC
_ERFC=ERFC
_HYPOT=HYPOT
_J0=J0
_J1=J1
_JN=JN
_GAMMA=GAMMA
_LGAMMA=LGAMMA
_Y0=Y0
_Y1=Y1
_YN=YN
_EXP=EXP
_LOG=LOG
_LOG10=LOG10
_SQRT=SQRT
_INT=INT
_NINT=NINT
_MAX=MAX
_MIN=MIN
_COSMO=  0.000000000000000    
_COSMOIT=  0.000000000000000    
_COSMOES=  0.000000000000000    
_COSMOEDS=  0.000000000000000    
_COSMOEC=  0.000000000000000    
_COSMOEDCORR=  0.000000000000000    
_FEPSI= 1.0000000000000000    
_SL_IsMM=  0.000000000000000    
_SL_NSYM=  4.000000000000000    
_SL_System_BitSw=  0.000000000000000    
_SL_Unique_atoms=  0.000000000000000    
_SL_GRAD=  0.000000000000000    
_SL_MAXUPD_Hess=  5.000000000000000    
_SL_N_PRINT_COD=  5.000000000000000    
_SL_PRINT_CODES=  0.000000000000000    
_SL_BasType=  0.000000000000000    
_SL_Energy_Pred=  0.000000000000000    
_SL_New_Coords=  0.000000000000000    
_SL_Total_Nuclea=  0.000000000000000    
_SL_Highest_Mltp=  0.000000000000000    
_SL_Ref_Geom=  0.000000000000000    
_SL_Symmetry_ope= 1.0000000000000000    
_SL_agrad=  0.000000000000000    
_SL_GrdMax=  0.000000000000000    
_SL_GrdNorm=  0.000000000000000    
_SL_GrdRMS=  0.000000000000000    
!LATTICE=-1.0000000000000000    
!NEWLATTICE=  0.000000000000000    
!LATGRAD_VAR=FALSE
!SEW_LATTICE= 1.0000000000000000    
!LOCAL=  0.000000000000000    
!SAVEDOM=-1.0000000000000000    
!RESTDOM=-1.0000000000000000    
!SAVEDOM_HF=-1.0000000000000000    
!RESTDOM_HF=-1.0000000000000000    
!HESSREC=  0.000000000000000    
!FREQREC=  0.000000000000000    
!NMODREC=  0.000000000000000    
!GTASKS=  0.000000000000000    
!HTASKS=  0.000000000000000    
!THRCHG= 0.1000000000000000    
!DEBUG=-1.0000000000000000    
!CFIT_CPHF=  0.000000000000000    
!RDOMAUX_CPHF=  5.000000000000000    
!THRAO_CPHF= 0.9999999999999999E-11
!THRMO_CPHF= 0.9999999999999999E-11
!THROV_CPHF= 0.1000000000000000E-11
!THRSW_CPHF= 0.1000000000000000E-09
!THRPROD_CPHF= 0.9999999999999999E-11
!THRAOPR_CPHF= 0.1000000000000000E-11
!CFIT_SCFGRD=  0.000000000000000    
!RDOMAUX_SCFGRD=  7.000000000000000    
!THRAO_SCFGRD= 0.9999999999999999E-11
!THRMO_SCFGRD= 0.9999999999999999E-11
!THROV_SCFGRD= 0.1000000000000000E-11
!THRSW_SCFGRD= 0.1000000000000000E-09
!THRPROD_SCFGRD= 0.9999999999999999E-11
!THRAOPR_SCFGRD= 0.1000000000000000E-11
!LOCFIT_SCF=  0.000000000000000    
!LOCFIT_MP2=-1.0000000000000000    
_RIDOM=  0.000000000000000    
!CC2_METHOD=  0.000000000000000    
_BASIS2006=FALSE
_SVDDEL=-1.0000000000000000    
_SVDDELA=-1.0000000000000000    
_SVDDELP=-1.0000000000000000    
_SVDDELF=-1.0000000000000000    
_SVDDELS=-1.0000000000000000    
_SVDDEL_ABS=-1.0000000000000000    
_SVDDELA_ABS=-1.0000000000000000    
_SVDDELP_ABS=-1.0000000000000000    
_SVDDELF_ABS=-1.0000000000000000    
_SVDDELS_ABS=-1.0000000000000000    
_MAXBASIS=  0.000000000000000    
!OPT_CONICAL=  0.000000000000000    
!CLEARSP_JGRID=  0.000000000000000    
_4EXT_NDISKS= 1.0000000000000000    
!ZMP=  0.000000000000000    
_MAXIT_ZMP=  500.0000000000000    
_MAXDIS_ZMP= 100.00000000000000    
_ACCU_ZMP=  14.00000000000000    
_SHIFTA_ZMP=-100.00000000000000    
!EMBEDFLAG= 1.0000000000000000    
!EMBED=FALSE
!EMBED_F12=FALSE
!EMBEDNUC=  0.000000000000000    
_EMBEDENERGY=  0.000000000000000    
_KSPACETIME=  0.000000000000000    
_RSPACETIME=  0.000000000000000    
!EMBED_DFC=FALSE
!NUM_VOIDS=  0.000000000000000    
_IBODY=  0.000000000000000    
_EMBE_TOTAL=  0.000000000000000    
_EMBE_HF=  0.000000000000000    
_EMBE_CORR=  0.000000000000000    
!EDFT=  0.000000000000000    
_IFASTLATGRAD=  0.000000000000000    
_SINDEX=  0.000000000000000    
GEOMTYP=XYZ
GX1= 0.7763204215596260E-20
GY1=  1.249404279731982    
GZ1=  0.000000000000000    
GX2=-0.6778487598481003    
GY2= 0.7530159929876547E-01
GZ2=  0.000000000000000    
GX3= 0.6778487598481003    
GY3= 0.7530159929876547E-01
GZ3=  0.000000000000000    
GX4= 0.1847282452157842E-19
GY4=  2.329219057539738    
GZ4=  0.000000000000000    
GX5= -1.612968035860982    
GY5=-0.4646132679346264    
GZ5=  0.000000000000000    
GX6=  1.612968035860982    
GY6=-0.4646132679346264    
GZ6=  0.000000000000000    
MD=c3h3.molden
[Atoms] Angs
C     1    6         0.0000000000        1.2494042797        0.0000000000
C     2    6        -0.6778487598        0.0753015993        0.0000000000
C     3    6         0.6778487598        0.0753015993        0.0000000000
H     4    1         0.0000000000        2.3292190575        0.0000000000
H     5    1        -1.6129680359       -0.4646132679        0.0000000000
H     6    1         1.6129680359       -0.4646132679        0.0000000000
[GTO]
  1 0
 s    9  1.00
  0.6665000000D+04  0.6920001793D-03
  0.1000000000D+04  0.5329001381D-02
  0.2280000000D+03  0.2707700701D-01
  0.6471000000D+02  0.1017180264D+00
  0.2106000000D+02  0.2747400712D+00
  0.7495000000D+01  0.4485641162D+00
  0.2797000000D+01  0.2850740738D+00
  0.5215000000D+00  0.1520400394D-01
  0.1596000000D+00 -0.3191000827D-02
 s    9  1.00
  0.6665000000D+04 -0.1460000642D-03
  0.1000000000D+04 -0.1154000508D-02
  0.2280000000D+03 -0.5725002519D-02
  0.6471000000D+02 -0.2331201026D-01
  0.2106000000D+02 -0.6395502813D-01
  0.7495000000D+01 -0.1499810660D+00
  0.2797000000D+01 -0.1272620560D+00
  0.5215000000D+00  0.5445292395D+00
  0.1596000000D+00  0.5804962554D+00
 s    9  1.00
  0.6665000000D+04  0.0000000000D+00
  0.1000000000D+04  0.0000000000D+00
  0.2280000000D+03  0.0000000000D+00
  0.6471000000D+02  0.0000000000D+00
  0.2106000000D+02  0.0000000000D+00
  0.7495000000D+01  0.0000000000D+00
  0.2797000000D+01  0.0000000000D+00
  0.5215000000D+00  0.0000000000D+00
  0.1596000000D+00  0.1000000000D+01
 p    4  1.00
  0.9439000000D+01  0.3810902127D-01
  0.2002000000D+01  0.2094801169D+00
  0.5456000000D+00  0.5085572839D+00
  0.1517000000D+00  0.4688422617D+00
 p    4  1.00
  0.9439000000D+01  0.0000000000D+00
  0.2002000000D+01  0.0000000000D+00
  0.5456000000D+00  0.0000000000D+00
  0.1517000000D+00  0.1000000000D+01
 d    1  1.00
  0.5500000000D+00  0.1000000000D+01
  
  2 0
 s    9  1.00
  0.6665000000D+04  0.6920001793D-03
  0.1000000000D+04  0.5329001381D-02
  0.2280000000D+03  0.2707700701D-01
  0.6471000000D+02  0.1017180264D+00
  0.2106000000D+02  0.2747400712D+00
  0.7495000000D+01  0.4485641162D+00
  0.2797000000D+01  0.2850740738D+00
  0.5215000000D+00  0.1520400394D-01
  0.1596000000D+00 -0.3191000827D-02
 s    9  1.00
  0.6665000000D+04 -0.1460000642D-03
  0.1000000000D+04 -0.1154000508D-02
  0.2280000000D+03 -0.5725002519D-02
  0.6471000000D+02 -0.2331201026D-01
  0.2106000000D+02 -0.6395502813D-01
  0.7495000000D+01 -0.1499810660D+00
  0.2797000000D+01 -0.1272620560D+00
  0.5215000000D+00  0.5445292395D+00
  0.1596000000D+00  0.5804962554D+00
 s    9  1.00
  0.6665000000D+04  0.0000000000D+00
  0.1000000000D+04  0.0000000000D+00
  0.2280000000D+03  0.0000000000D+00
  0.6471000000D+02  0.0000000000D+00
  0.2106000000D+02  0.0000000000D+00
  0.7495000000D+01  0.0000000000D+00
  0.2797000000D+01  0.0000000000D+00
  0.5215000000D+00  0.0000000000D+00
  0.1596000000D+00  0.1000000000D+01
 p    4  1.00
  0.9439000000D+01  0.3810902127D-01
  0.2002000000D+01  0.2094801169D+00
  0.5456000000D+00  0.5085572839D+00
  0.1517000000D+00  0.4688422617D+00
 p    4  1.00
  0.9439000000D+01  0.0000000000D+00
  0.2002000000D+01  0.0000000000D+00
  0.5456000000D+00  0.0000000000D+00
  0.1517000000D+00  0.1000000000D+01
 d    1  1.00
  0.5500000000D+00  0.1000000000D+01
  
  3 0
 s    9  1.00
  0.6665000000D+04  0.6920001793D-03
  0.1000000000D+04  0.5329001381D-02
  0.2280000000D+03  0.2707700701D-01
  0.6471000000D+02  0.1017180264D+00
  0.2106000000D+02  0.2747400712D+00
  0.7495000000D+01  0.4485641162D+00
  0.2797000000D+01  0.2850740738D+00
  0.5215000000D+00  0.1520400394D-01
  0.1596000000D+00 -0.3191000827D-02
 s    9  1.00
  0.6665000000D+04 -0.1460000642D-03
  0.1000000000D+04 -0.1154000508D-02
  0.2280000000D+03 -0.5725002519D-02
  0.6471000000D+02 -0.2331201026D-01
  0.2106000000D+02 -0.6395502813D-01
  0.7495000000D+01 -0.1499810660D+00
  0.2797000000D+01 -0.1272620560D+00
  0.5215000000D+00  0.5445292395D+00
  0.1596000000D+00  0.5804962554D+00
 s    9  1.00
  0.6665000000D+04  0.0000000000D+00
  0.1000000000D+04  0.0000000000D+00
  0.2280000000D+03  0.0000000000D+00
  0.6471000000D+02  0.0000000000D+00
  0.2106000000D+02  0.0000000000D+00
  0.7495000000D+01  0.0000000000D+00
  0.2797000000D+01  0.0000000000D+00
  0.5215000000D+00  0.0000000000D+00
  0.1596000000D+00  0.1000000000D+01
 p    4  1.00
  0.9439000000D+01  0.3810902127D-01
  0.2002000000D+01  0.2094801169D+00
  0.5456000000D+00  0.5085572839D+00
  0.1517000000D+00  0.4688422617D+00
 p    4  1.00
  0.9439000000D+01  0.0000000000D+00
  0.2002000000D+01  0.0000000000D+00
  0.5456000000D+00  0.0000000000D+00
  0.1517000000D+00  0.1000000000D+01
 d    1  1.00
  0.5500000000D+00  0.1000000000D+01
  
  4 0
 s    4  1.00
  0.1301000000D+02  0.1968498999D-01
  0.1962000000D+01  0.1379769298D+00
  0.4446000000D+00  0.4781477569D+00
  0.1220000000D+00  0.5012397451D+00
 s    4  1.00
  0.1301000000D+02  0.0000000000D+00
  0.1962000000D+01  0.0000000000D+00
  0.4446000000D+00  0.0000000000D+00
  0.1220000000D+00  0.1000000000D+01
 p    1  1.00
  0.7270000000D+00  0.1000000000D+01
  
  5 0
 s    4  1.00
  0.1301000000D+02  0.1968498999D-01
  0.1962000000D+01  0.1379769298D+00
  0.4446000000D+00  0.4781477569D+00
  0.1220000000D+00  0.5012397451D+00
 s    4  1.00
  0.1301000000D+02  0.0000000000D+00
  0.1962000000D+01  0.0000000000D+00
  0.4446000000D+00  0.0000000000D+00
  0.1220000000D+00  0.1000000000D+01
 p    1  1.00
  0.7270000000D+00  0.1000000000D+01
  
  6 0
 s    4  1.00
  0.1301000000D+02  0.1968498999D-01
  0.1962000000D+01  0.1379769298D+00
  0.4446000000D+00  0.4781477569D+00
  0.1220000000D+00  0.5012397451D+00
 s    4  1.00
  0.1301000000D+02  0.0000000000D+00
  0.1962000000D+01  0.0000000000D+00
  0.4446000000D+00  0.0000000000D+00
  0.1220000000D+00  0.1000000000D+01
 p    1  1.00
  0.7270000000D+00  0.1000000000D+01
 
 
[MO]
 Sym=      1.1
 Ene=     -11.5734
 Spin= Alpha
 Occup=    2.000000
1 0.57893786605470
2 0.003036694101777
3 -0.001566253766730
4 0.0
5 -0.000223200237941
6 0.0
7 0.0
8 0.000460910193913
9 0.0
10 -0.000130149290131
11 0.000562245713866
12 -0.000432096423735
13 0.0
14 0.0
15 0.0
16 0.57670334496964
17 0.003012829708245
18 -0.001545443998081
19 0.000187715057813
20 0.000107673389164
21 0.0
22 -0.000394216058824
23 -0.000226083548025
24 0.0
25 0.000384986795254
26 0.000042587297260
27 -0.000427574092514
28 0.000340607916895
29 0.0
30 0.0
31 0.57670334496964
32 0.003012829708245
33 -0.001545443998081
34 -0.000187715057813
35 0.000107673389164
36 0.0
37 0.000394216058824
38 -0.000226083548025
39 0.0
40 0.000384986795254
41 0.000042587297260
42 -0.000427574092514
43 -0.000340607916895
44 0.0
45 0.0
46 -0.001097528492326
47 0.000986356177387
48 0.0
49 0.000276357510723
50 0.0
51 -0.001089702443080
52 0.000981259290826
53 -0.000236678747640
54 -0.000137066606199
55 0.0
56 -0.001089702443080
57 0.000981259290826
58 0.000236678747640
59 -0.000137066606199
60 0.0
 Sym=      2.1
 Ene=     -11.5712
 Spin= Alpha
 Occup=    2.000000
1 0.81717670401249
2 0.008826940271025
3 -0.007617070760323
4 0.0
5 -0.002503096712384
6 0.0
7 0.0
8 0.002343780805797
9 0.0
10 -0.001084202469757
11 0.002766197379770
12 -0.001681994910013
13 0.0
14 0.0
15 0.0
16 -0.41016533342707
17 -0.004421906892906
18 0.003812922039763
19 -0.000914458599481
20 -0.000920339301815
21 0.0
22 0.000656533369862
23 0.001209032217350
24 0.0
25 -0.000553242797319
26 -0.000288940974139
27 0.000842183771458
28 -0.001196600438337
29 0.0
30 0.0
31 -0.41016533342707
32 -0.004421906892906
33 0.003812922039763
34 0.000914458599481
35 -0.000920339301815
36 0.0
37 -0.000656533369862
38 0.001209032217350
39 0.0
40 -0.000553242797319
41 -0.000288940974139
42 0.000842183771458
43 0.001196600438337
44 0.0
45 0.0
46 -0.002927770644281
47 0.001914847426951
48 0.0
49 0.001054413360614
50 0.0
51 0.001466927286787
52 -0.000960169978892
53 0.000548290780516
54 0.000106231939421
55 0.0
56 0.001466927286787
57 -0.000960169978892
58 -0.000548290780516
59 0.000106231939421
60 0.0
 Sym=      1.2
 Ene=     -11.5712
 Spin= Alpha
 Occup=    2.000000
1 0.0
2 0.0
3 0.0
4 0.000392369108471
5 0.0
6 0.0
7 -0.000829950363190
8 0.0
9 0.0
10 0.0
11 0.0
12 0.0
13 -0.000538271209401
14 0.0
15 0.0
16 0.70860758107227
17 0.007649728769558
18 -0.006599582357279
19 0.001975760932176
20 0.000914194816571
21 0.0
22 -0.001965971383792
23 -0.000655844807286
24 0.0
25 0.001764406244668
26 -0.000307059796564
27 -0.001457346448104
28 0.001533319886446
29 0.0
30 0.0
31 -0.70860758107227
32 -0.007649728769558
33 0.006599582357279
34 0.001975760932176
35 -0.000914194816571
36 0.0
37 -0.001965971383792
38 0.000655844807286
39 0.0
40 -0.001764406244668
41 0.000307059796564
42 0.001457346448104
43 0.001533319886446
44 0.0
45 0.0
46 0.0
47 0.0
48 0.000210351424002
49 0.0
50 0.0
51 -0.002537362946220
52 0.001659978198682
53 -0.000738583748970
54 -0.000547891306460
55 0.0
56 0.002537362946220
57 -0.001659978198682
58 -0.000738583748970
59 0.000547891306460
60 0.0
 Sym=      3.1
 Ene=      -1.5245
 Spin= Alpha
 Occup=    2.000000
1 -0.018952486270298
2 0.50574893810161
3 -0.17787044717968
4 0.0
5 -0.25397419359816
6 0.0
7 0.0
8 0.097469471837503
9 0.0
10 -0.004243859765853
11 0.019573091297360
12 -0.015329231531507
13 0.0
14 0.0
15 0.0
16 -0.018954279269345
17 0.50575956331049
18 -0.17787851985565
19 0.21995318530540
20 0.12698589407711
21 0.0
22 -0.084415664933955
23 -0.048735998868138
24 0.0
25 0.013619126225600
26 0.001710187270280
27 -0.015329313495881
28 0.011908206764620
29 0.0
30 0.0
31 -0.018954279269345
32 0.50575956331049
33 -0.17787851985565
34 -0.21995318530540
35 0.12698589407711
36 0.0
37 0.084415664933955
38 -0.048735998868138
39 0.0
40 0.013619126225600
41 0.001710187270280
42 -0.015329313495881
43 -0.011908206764620
44 0.0
45 0.0
46 0.059259047907444
47 -0.035070871225102
48 0.0
49 -0.008347864732753
50 0.0
51 0.059263251983961
52 -0.035074427229757
53 0.007230015295186
54 0.004174317666638
55 0.0
56 0.059263251983961
57 -0.035074427229757
58 -0.007230015295186
59 0.004174317666638
60 0.0
 Sym=      4.1
 Ene=      -1.0682
 Spin= Alpha
 Occup=    2.000000
1 -0.013113301717347
2 0.59256446636504
3 0.033170423780849
4 0.0
5 0.22961504514236
6 0.0
7 0.0
8 -0.15602153001174
9 0.0
10 -0.001353676410421
11 0.007619012889461
12 -0.006265336479039
13 0.0
14 0.0
15 0.0
16 0.006557938283952
17 -0.29628018957937
18 -0.016584039341986
19 -0.023831734702645
20 0.27092898263347
21 0.0
22 -0.025145427486833
23 -0.11248397080077
24 0.0
25 -0.022177194206217
26 0.019044717508732
27 0.003132476697485
28 0.010750475431580
29 0.0
30 0.0
31 0.006557938283952
32 -0.29628018957937
33 -0.016584039341986
34 0.023831734702645
35 0.27092898263347
36 0.0
37 0.025145427486833
38 -0.11248397080077
39 0.0
40 -0.022177194206217
41 0.019044717508732
42 0.003132476697485
43 -0.010750475431580
44 0.0
45 0.0
46 0.45314467118476
47 -0.17617443084768
48 0.0
49 -0.028766483849594
50 0.0
51 -0.22659220990143
52 0.088094883493348
53 -0.015647581307314
54 -0.001666774578491
55 0.0
56 -0.22659220990143
57 0.088094883493348
58 0.015647581307314
59 -0.001666774578491
60 0.0
 Sym=      2.2
 Ene=      -1.0682
 Spin= Alpha
 Occup=    2.000000
1 0.0
2 0.0
3 0.0
4 0.28466917809662
5 0.0
6 0.0
7 -0.097958862120932
8 0.0
9 0.0
10 0.0
11 0.0
12 0.0
13 -0.030005152568061
14 0.0
15 0.0
16 0.011357917469352
17 -0.51316530975063
18 -0.028735681887972
19 0.24340419210716
20 -0.023824014126132
21 0.0
22 -0.14151920396253
23 -0.025150428702633
24 0.0
25 0.006597301927506
26 -0.012022647547359
27 0.005425345619853
28 -0.011386690459362
29 0.0
30 0.0
31 -0.011357917469352
32 0.51316530975063
33 0.028735681887972
34 0.24340419210716
35 0.023824014126132
36 0.0
37 -0.14151920396253
38 0.025150428702633
39 0.0
40 -0.006597301927506
41 0.012022647547359
42 -0.005425345619853
43 -0.011386690459362
44 0.0
45 0.0
46 0.0
47 0.0
48 0.007367300455300
49 0.0
50 0.0
51 -0.39246013584970
52 0.15257950987623
53 -0.019733701074144
54 -0.015647471335297
55 0.0
56 0.39246013584970
57 -0.15257950987623
58 -0.019733701074144
59 0.015647471335297
60 0.0
 Sym=      5.1
 Ene=      -0.9848
 Spin= Alpha
 Occup=    2.000000
1 -0.005537083764585
2 0.13219278576430
3 0.024625479942093
4 0.0
5 0.42507429516520
6 0.0
7 0.0
8 -0.14071131553760
9 0.0
10 0.007292012926546
11 -0.007926032271781
12 0.000634019345235
13 0.0
14 0.0
15 0.0
16 -0.005537021896052
17 0.13215913118052
18 0.024624478183328
19 -0.36812093710471
20 -0.21253239335662
21 0.0
22 0.12186116206103
23 0.070355635197000
24 0.0
25 -0.004122979886106
26 0.003488048333987
27 0.000634931552119
28 -0.007610014595356
29 0.0
30 0.0
31 -0.005537021896052
32 0.13215913118052
33 0.024624478183328
34 0.36812093710471
35 -0.21253239335662
36 0.0
37 -0.12186116206103
38 0.070355635197000
39 0.0
40 -0.004122979886106
41 0.003488048333987
42 0.000634931552119
43 0.007610014595356
44 0.0
45 0.0
46 0.39450427908677
47 -0.15764049304579
48 0.0
49 -0.023045663053269
50 0.0
51 0.39449053551463
52 -0.15763328563157
53 0.019956838510870
54 0.011522973678728
55 0.0
56 0.39449053551463
57 -0.15763328563157
58 -0.019956838510870
59 0.011522973678728
60 0.0
 Sym=      6.1
 Ene=      -0.7867
 Spin= Alpha
 Occup=    2.000000
1 -0.000240726239676
2 0.067804712252005
3 0.074299106991703
4 0.0
5 -0.40330891580515
6 0.0
7 0.0
8 0.006387388501161
9 0.0
10 0.023415836868797
11 -0.016689999439538
12 -0.006725837429258
13 0.0
14 0.0
15 0.0
16 0.000120001829445
17 -0.033904733345730
18 -0.037145619063726
19 -0.45890991024027
20 0.39152773263576
21 0.0
22 0.061466636285292
23 -0.10006226578861
24 0.0
25 -0.021947346242224
26 0.018585005540609
27 0.003362340701615
28 0.026879884475320
29 0.0
30 0.0
31 0.000120001829445
32 -0.033904733345730
33 -0.037145619063726
34 0.45890991024027
35 0.39152773263576
36 0.0
37 -0.061466636285292
38 -0.10006226578861
39 0.0
40 -0.021947346242224
41 0.018585005540609
42 0.003362340701615
43 -0.026879884475320
44 0.0
45 0.0
46 -0.37399116395733
47 0.15166958335619
48 0.0
49 0.017548918719670
50 0.0
51 0.18699763139186
52 -0.075833416713810
53 0.001791342351954
54 0.014445014785321
55 0.0
56 0.18699763139186
57 -0.075833416713810
58 -0.001791342351954
59 0.014445014785321
60 0.0
 Sym=      3.2
 Ene=      -0.7867
 Spin= Alpha
 Occup=    2.000000
1 0.0
2 0.0
3 0.0
4 -0.65649252327437
5 0.0
6 0.0
7 0.13554625241376
8 0.0
9 0.0
10 0.0
11 0.0
12 0.0
13 0.038920615956010
14 0.0
15 0.0
16 -0.000208141436279
17 0.058729197392875
18 0.064362506740405
19 0.13834439569143
20 0.45889964690813
21 0.0
22 0.029106424331866
23 -0.061453030799449
24 0.0
25 -0.020366341780594
26 0.026191097048922
27 -0.005824755268328
28 -0.007637984695865
29 0.0
30 0.0
31 0.000208141436279
32 -0.058729197392875
33 -0.064362506740405
34 0.13834439569143
35 -0.45889964690813
36 0.0
37 0.029106424331866
38 0.061453030799449
39 0.0
40 0.020366341780594
41 -0.026191097048922
42 0.005824755268328
43 -0.007637984695865
44 0.0
45 0.0
46 0.0
47 0.0
48 -0.013410779638125
49 0.0
50 0.0
51 -0.32387961353480
52 0.13134849377602
53 -0.016514074285612
54 -0.001791897163718
55 0.0
56 0.32387961353480
57 -0.13134849377602
58 -0.016514074285612
59 0.001791897163718
60 0.0
 Sym=      1.3
 Ene=      -0.7687
 Spin= Alpha
 Occup=    2.000000
1 0.0
2 0.0
3 0.0
4 0.0
5 0.0
6 0.49293103467090
7 0.0
8 0.0
9 -0.065597940374415
10 0.0
11 0.0
12 0.0
13 0.0
14 0.0
15 -0.048608283175377
16 0.0
17 0.0
18 0.0
19 0.0
20 0.0
21 0.49294437363697
22 0.0
23 0.0
24 -0.065600178134655
25 0.0
26 0.0
27 0.0
28 0.0
29 0.042096651387001
30 0.024304495491976
31 0.0
32 0.0
33 0.0
34 0.0
35 0.0
36 0.49294437363697
37 0.0
38 0.0
39 -0.065600178134655
40 0.0
41 0.0
42 0.0
43 0.0
44 -0.042096651387001
45 0.024304495491976
46 0.0
47 0.0
48 0.0
49 0.0
50 0.012671800599229
51 0.0
52 0.0
53 0.0
54 0.0
55 0.012672571797023
56 0.0
57 0.0
58 0.0
59 0.0
60 0.012672571797023
 Sym=      2.3
 Ene=      -0.1137
 Spin= Alpha
 Occup=    0.000000
1 0.0
2 0.0
3 0.0
4 0.0
5 0.0
6 0.66847822828181
7 0.0
8 0.0
9 0.46847391967445
10 0.0
11 0.0
12 0.0
13 0.0
14 0.0
15 0.012264029181467
16 0.0
17 0.0
18 0.0
19 0.0
20 0.0
21 -0.33423572204405
22 0.0
23 0.0
24 -0.23423020514570
25 0.0
26 0.0
27 0.0
28 0.0
29 -0.012462569916085
30 0.033848882585364
31 0.0
32 0.0
33 0.0
34 0.0
35 0.0
36 -0.33423572204405
37 0.0
38 0.0
39 -0.23423020514570
40 0.0
41 0.0
42 0.0
43 0.0
44 0.012462569916085
45 0.033848882585364
46 0.0
47 0.0
48 0.0
49 0.0
50 0.025875739293430
51 0.0
52 0.0
53 0.0
54 0.0
55 -0.012937694406360
56 0.0
57 0.0
58 0.0
59 0.0
60 -0.012937694406360
 Sym=      1.4
 Ene=      -0.1137
 Spin= Alpha
 Occup=    0.000000
1 0.0
2 0.0
3 0.0
4 0.0
5 0.0
6 0.0
7 0.0
8 0.0
9 0.0
10 0.0
11 0.0
12 0.0
13 0.0
14 -0.041043517359734
15 0.0
16 0.0
17 0.0
18 0.0
19 0.0
20 0.0
21 0.57891208492149
22 0.0
23 0.0
24 0.40573363542482
25 0.0
26 0.0
27 0.0
28 0.0
29 -0.019459478229190
30 0.012461589980777
31 0.0
32 0.0
33 0.0
34 0.0
35 0.0
36 -0.57891208492149
37 0.0
38 0.0
39 -0.40573363542482
40 0.0
41 0.0
42 0.0
43 0.0
44 -0.019459478229190
45 -0.012461589980777
46 0.0
47 0.0
48 0.0
49 0.0
50 0.0
51 0.0
52 0.0
53 0.0
54 0.0
55 0.022409202691323
56 0.0
57 0.0
58 0.0
59 0.0
60 -0.022409202691323
 Sym=      7.1
 Ene=       0.0121
 Spin= Alpha
 Occup=    0.000000
1 0.022480728553310
2 -0.076049708013605
3 -0.96251468055826
4 0.0
5 -0.25236688739220
6 0.0
7 0.0
8 -0.40428153906819
9 0.0
10 -0.013570149671074
11 0.022471950958260
12 -0.008901801287187
13 0.0
14 0.0
15 0.0
16 0.022467838443769
17 -0.075479913565840
18 -0.96164961498750
19 0.21832380367225
20 0.12614685392677
21 0.0
22 0.34887344095261
23 0.20151528595581
24 0.0
25 0.013465519002238
26 -0.004584035947390
27 -0.008881483054849
28 0.018010815209322
29 0.0
30 0.0
31 0.022467838443769
32 -0.075479913565840
33 -0.96164961498750
34 -0.21832380367225
35 0.12614685392677
36 0.0
37 -0.34887344095261
38 0.20151528595581
39 0.0
40 0.013465519002238
41 -0.004584035947390
42 -0.008881483054849
43 -0.018010815209322
44 0.0
45 0.0
46 0.12494152277061
47 1.18898255067943
48 0.0
49 -0.001658400383559
50 0.0
51 0.12469918468148
52 1.18645088562151
53 0.001428725837084
54 0.000834501580984
55 0.0
56 0.12469918468148
57 1.18645088562151
58 -0.001428725837084
59 0.000834501580984
60 0.0
 Sym=      8.1
 Ene=       0.0146
 Spin= Alpha
 Occup=    0.000000
1 -0.008650698147636
2 0.38607598033030
3 0.60446150069532
4 0.0
5 0.14879100497727
6 0.0
7 0.0
8 0.97034045118036
9 0.0
10 -0.006227062516329
11 -0.007251072190441
12 0.013478134706770
13 0.0
14 0.0
15 0.0
16 0.004355459066182
17 -0.19315759784166
18 -0.30365439153658
19 0.10304529731651
20 -0.028962287817054
21 0.0
22 0.46305165406048
23 0.16953240156735
24 0.0
25 -0.011768459847186
26 0.018520602742896
27 -0.006752142895710
28 0.010469732308817
29 0.0
30 0.0
31 0.004355459066182
32 -0.19315759784166
33 -0.30365439153658
34 -0.10304529731651
35 -0.028962287817054
36 0.0
37 -0.46305165406048
38 0.16953240156735
39 0.0
40 -0.011768459847186
41 0.018520602742896
42 -0.006752142895710
43 -0.010469732308817
44 0.0
45 0.0
46 -0.15631351006166
47 -1.76822038191840
48 0.0
49 0.003249219339791
50 0.0
51 0.078322316828162
52 0.88588320916175
53 0.005644427298408
54 -0.006520713043312
55 0.0
56 0.078322316828162
57 0.88588320916175
58 -0.005644427298408
59 -0.006520713043312
60 0.0
 Sym=      4.2
 Ene=       0.0146
 Spin= Alpha
 Occup=    0.000000
1 0.0
2 0.0
3 0.0
4 -0.088473843375749
5 0.0
6 0.0
7 -0.097844298001350
8 0.0
9 0.0
10 0.0
11 0.0
12 0.0
13 -0.023533688950976
14 0.0
15 0.0
16 0.007509956713424
17 -0.33440468595537
18 -0.52426997214391
19 0.089685146970444
20 0.10280943146918
21 0.0
22 0.70367142137219
23 0.46270638079627
24 0.0
25 0.014890870878090
26 -0.003212757006724
27 -0.011678113871366
28 -0.005425118901488
29 0.0
30 0.0
31 -0.007509956713424
32 0.33440468595537
33 0.52426997214391
34 0.089685146970444
35 -0.10280943146918
36 0.0
37 0.70367142137219
38 -0.46270638079627
39 0.0
40 -0.014890870878090
41 0.003212757006724
42 0.011678113871366
43 -0.005425118901488
44 0.0
45 0.0
46 0.0
47 0.0
48 -0.009780798596938
49 0.0
50 0.0
51 0.13544897227642
52 1.53242511098734
53 -0.000004812486776
54 0.005641285170111
55 0.0
56 -0.13544897227642
57 -1.53242511098734
58 -0.000004812486776
59 -0.005641285170111
60 0.0
 Sym=      5.2
 Ene=       0.0961
 Spin= Alpha
 Occup=    0.000000
1 0.0
2 0.0
3 0.0
4 -0.47523353621411
5 0.0
6 0.0
7 -1.07822149474785
8 0.0
9 0.0
10 0.0
11 0.0
12 0.0
13 -0.016729549876065
14 0.0
15 0.0
16 0.000004228459418
17 -0.000000934257237
18 -0.000158226015769
19 0.23758506907170
20 -0.41157802643695
21 0.0
22 0.53886694863708
23 -0.93379752901178
24 0.0
25 -0.012544850693083
26 0.012543943610888
27 0.000000907082196
28 0.008362183720328
29 0.0
30 0.0