[Molden Format]
[Atoms] Angs
H     1    1         0.0000000000       -0.8901392951        0.5586943229
O     2    8         0.0000000000        0.0000000000       -0.0703939342
H     3    1         0.0000000000        0.8901392951        0.5586943229
[GTO]
  1 0
 s    4  1.00
  0.1301000000D+02  0.1968498999D-01
  0.1962000000D+01  0.1379769298D+00
  0.4446000000D+00  0.4781477569D+00
  0.1220000000D+00  0.5012397451D+00
 s    4  1.00
  0.1301000000D+02  0.0000000000D+00
  0.1962000000D+01  0.0000000000D+00
  0.4446000000D+00  0.0000000000D+00
  0.1220000000D+00  0.1000000000D+01
 p    1  1.00
  0.7270000000D+00  0.1000000000D+01
  
  3 0
 s    4  1.00
  0.1301000000D+02  0.1968498999D-01
  0.1962000000D+01  0.1379769298D+00
  0.4446000000D+00  0.4781477569D+00
  0.1220000000D+00  0.5012397451D+00
 s    4  1.00
  0.1301000000D+02  0.0000000000D+00
  0.1962000000D+01  0.0000000000D+00
  0.4446000000D+00  0.0000000000D+00
  0.1220000000D+00  0.1000000000D+01
 p    1  1.00
  0.7270000000D+00  0.1000000000D+01
  
  2 0
 s    9  1.00
  0.1172000000D+05  0.7100002503D-03
  0.1759000000D+04  0.5470001928D-02
  0.4008000000D+03  0.2783700981D-01
  0.1137000000D+03  0.1048000369D+00
  0.3703000000D+02  0.2830620998D+00
  0.1327000000D+02  0.4487191582D+00
  0.5025000000D+01  0.2709520955D+00
  0.1013000000D+01  0.1545800545D-01
  0.3023000000D+00 -0.2585000911D-02
 s    9  1.00
  0.1172000000D+05 -0.1600000154D-03
  0.1759000000D+04 -0.1263000121D-02
  0.4008000000D+03 -0.6267000602D-02
  0.1137000000D+03 -0.2571600247D-01
  0.3703000000D+02 -0.7092400682D-01
  0.1327000000D+02 -0.1654110159D+00
  0.5025000000D+01 -0.1169550112D+00
  0.1013000000D+01  0.5573680536D+00
  0.3023000000D+00  0.5727590551D+00
 s    9  1.00
  0.1172000000D+05  0.0000000000D+00
  0.1759000000D+04  0.0000000000D+00
  0.4008000000D+03  0.0000000000D+00
  0.1137000000D+03  0.0000000000D+00
  0.3703000000D+02  0.0000000000D+00
  0.1327000000D+02  0.0000000000D+00
  0.5025000000D+01  0.0000000000D+00
  0.1013000000D+01  0.0000000000D+00
  0.3023000000D+00  0.1000000000D+01
 p    4  1.00
  0.1770000000D+02  0.4301799242D-01
  0.3854000000D+01  0.2289129597D+00
  0.1046000000D+01  0.5087279104D+00
  0.2753000000D+00  0.4605309189D+00
 p    4  1.00
  0.1770000000D+02  0.0000000000D+00
  0.3854000000D+01  0.0000000000D+00
  0.1046000000D+01  0.0000000000D+00
  0.2753000000D+00  0.1000000000D+01
 d    1  1.00
  0.1185000000D+01  0.1000000000D+01
 
 
[MO]
 Sym=      1.1
 Ene=     -20.5705
 Spin= Alpha
 Occup=    2.000000
   1   0.00034767868
   2   0.00007186521
   3   0.00000000000
   4  -0.00013785310
   5   0.00016265199
   6   0.00034767868
   7   0.00007186521
   8   0.00000000000
   9   0.00013785310
  10   0.00016265199
  11   1.00037141935
  12   0.00325205790
  13  -0.00080915562
  14   0.00000000000
  15   0.00000000000
  16   0.00200829500
  17   0.00000000000
  18   0.00000000000
  19  -0.00157271854
  20  -0.00100840516
  21  -0.00121669756
  22  -0.00117209065
  23   0.00000000000
  24   0.00000000000
  25   0.00000000000
 Sym=      2.1
 Ene=      -1.2776
 Spin= Alpha
 Occup=    2.000000
   1   0.24232464969
   2  -0.10680939648
   3   0.00000000000
   4   0.02781019976
   5  -0.01486922064
   6   0.24232464969
   7  -0.10680939648
   8   0.00000000000
   9  -0.02781019976
  10  -0.01486922064
  11  -0.00574995165
  12   0.89282961005
  13  -0.05729348203
  14   0.00000000000
  15   0.00000000000
  16   0.07687197772
  17   0.00000000000
  18   0.00000000000
  19  -0.03118879398
  20  -0.00084529078
  21   0.00454333838
  22   0.00290902449
  23   0.00000000000
  24   0.00000000000
  25   0.00000000000
 Sym=      1.3
 Ene=      -0.6420
 Spin= Alpha
 Occup=    2.000000
   1  -0.51784817017
   2   0.14681458678
   3   0.00000000000
   4  -0.02563791166
   5   0.02818834201
   6   0.51784817017
   7  -0.14681458678
   8   0.00000000000
   9  -0.02563791166
  10  -0.02818834201
  11   0.00000000000
  12   0.00000000000
  13   0.00000000000
  14   0.00000000000
  15   0.68760803407
  16   0.00000000000
  17   0.00000000000
  18  -0.06480473944
  19   0.00000000000
  20   0.00000000000
  21   0.00000000000
  22   0.00000000000
  23   0.00000000000
  24   0.00000000000
  25   0.02265475066
 Sym=      3.1
 Ene=      -0.5334
 Spin= Alpha
 Occup=    2.000000
   1   0.34094006744
   2  -0.09843392462
   3   0.00000000000
   4   0.02691435448
   5   0.00582876243
   6   0.34094006744
   7  -0.09843392462
   8   0.00000000000
   9  -0.02691435448
  10   0.00582876243
  11   0.00180449812
  12  -0.27173777192
  13  -0.15295344370
  14   0.00000000000
  15   0.00000000000
  16   0.78471907995
  17   0.00000000000
  18   0.00000000000
  19   0.02693934940
  20  -0.00478548890
  21   0.00473280813
  22   0.02336420946
  23   0.00000000000
  24   0.00000000000
  25   0.00000000000
 Sym=      1.2
 Ene=      -0.4846
 Spin= Alpha
 Occup=    2.000000
   1   0.00000000000
   2   0.00000000000
   3   0.02552852240
   4   0.00000000000
   5   0.00000000000
   6   0.00000000000
   7   0.00000000000
   8   0.02552852240
   9   0.00000000000
  10   0.00000000000
  11   0.00000000000
  12   0.00000000000
  13   0.00000000000
  14   0.92664386608
  15   0.00000000000
  16   0.00000000000
  17   0.07338577045
  18   0.00000000000
  19   0.00000000000
  20   0.00000000000
  21   0.00000000000
  22   0.00000000000
  23   0.00000000000
  24   0.01584934165
  25   0.00000000000
 Sym=      4.1
 Ene=       0.1569
 Spin= Alpha
 Occup=    0.000000
   1   0.17887406642
   2   0.68299920501
   3   0.00000000000
   4   0.00341735901
   5  -0.00892159550
   6   0.17887406642
   7   0.68299920501
   8   0.00000000000
   9  -0.00341735901
  10  -0.00892159550
  11   0.05132025789
  12  -0.17984832992
  13  -0.83242355945
  14   0.00000000000
  15   0.00000000000
  16  -0.34148080874
  17   0.00000000000
  18   0.00000000000
  19  -0.21951470539
  20   0.03509607237
  21   0.03111392066
  22   0.02305386332
  23   0.00000000000
  24   0.00000000000
  25   0.00000000000
 Sym=      2.3
 Ene=       0.2325
 Spin= Alpha
 Occup=    0.000000
   1   0.10130638727
   2   1.13731919392
   3   0.00000000000
   4   0.01131396936
   5  -0.00435440716
   6  -0.10130638727
   7  -1.13731919392
   8   0.00000000000
   9   0.01131396936
  10   0.00435440716
  11   0.00000000000
  12   0.00000000000
  13   0.00000000000
  14   0.00000000000
  15   0.46973018350
  16   0.00000000000
  17   0.00000000000
  18   0.44854501791
  19   0.00000000000
  20   0.00000000000
  21   0.00000000000
  22   0.00000000000
  23   0.00000000000
  24   0.00000000000
  25   0.01140846917
 Sym=      3.3
 Ene=       0.7250
 Spin= Alpha
 Occup=    0.000000
   1  -1.58538636397
   2   1.62907606065
   3   0.00000000000
   4   0.04423470908
   5  -0.12383692242
   6   1.58538636397
   7  -1.62907606065
   8   0.00000000000
   9   0.04423470908
  10   0.12383692242
  11   0.00000000000
  12   0.00000000000
  13   0.00000000000
  14   0.00000000000
  15  -0.44150549096
  16   0.00000000000
  17   0.00000000000
  18  -0.04450387830
  19   0.00000000000
  20   0.00000000000
  21   0.00000000000
  22   0.00000000000
  23   0.00000000000
  24   0.00000000000
  25   0.09379558214
 Sym=      5.1
 Ene=       0.7306
 Spin= Alpha
 Occup=    0.000000
   1  -1.49735102434
   2   1.39312750387
   3   0.00000000000
   4   0.18679161242
   5  -0.01942076654
   6  -1.49735102434
   7   1.39312750387
   8   0.00000000000
   9  -0.18679161242
  10  -0.01942076654
  11   0.07533856921
  12   0.47093880472
  13  -0.60683264934
  14   0.00000000000
  15   0.00000000000
  16   0.41161418757
  17   0.00000000000
  18   0.00000000000
  19  -0.12125345483
  20   0.07875132868
  21  -0.06751321988
  22   0.02202806201
  23   0.00000000000
  24   0.00000000000
  25   0.00000000000
 Sym=      6.1
 Ene=       1.1660
 Spin= Alpha
 Occup=    0.000000
   1  -0.50204980287
   2   0.15500108546
   3   0.00000000000
   4  -0.05681073836
   5   0.29134279482
   6  -0.50204980287
   7   0.15500108546
   8   0.00000000000
   9   0.05681073836
  10   0.29134279482
  11   0.02614886564
  12   0.25201663781
  13   0.14189741284
  14   0.00000000000
  15   0.00000000000
  16  -1.16355955019
  17   0.00000000000
  18   0.00000000000
  19   1.60022106679
  20   0.03700253868
  21   0.01601568103
  22   0.06328328134
  23   0.00000000000
  24   0.00000000000
  25   0.00000000000
 Sym=      2.2
 Ene=       1.1901
 Spin= Alpha
 Occup=    0.000000
   1   0.00000000000
   2   0.00000000000
   3   0.11740016598
   4   0.00000000000
   5   0.00000000000
   6   0.00000000000
   7   0.00000000000
   8   0.11740016598
   9   0.00000000000
  10   0.00000000000
  11   0.00000000000
  12   0.00000000000
  13   0.00000000000
  14  -1.38088528518
  15   0.00000000000
  16   0.00000000000
  17   1.57304360951
  18   0.00000000000
  19   0.00000000000
  20   0.00000000000
  21   0.00000000000
  22   0.00000000000
  23   0.00000000000
  24   0.00709253904
  25   0.00000000000
 Sym=      4.3
 Ene=       1.2590
 Spin= Alpha
 Occup=    0.000000
   1   0.52467562844
   2   0.35835996909
   3   0.00000000000
   4   0.35982495241
   5  -0.06469198271
   6  -0.52467562844
   7  -0.35835996909
   8   0.00000000000
   9   0.35982495241
  10   0.06469198271
  11   0.00000000000
  12   0.00000000000
  13   0.00000000000
  14   0.00000000000
  15  -1.10810182526
  16   0.00000000000
  17   0.00000000000
  18   2.10420862955
  19   0.00000000000
  20   0.00000000000
  21   0.00000000000
  22   0.00000000000
  23   0.00000000000
  24   0.00000000000
  25  -0.00455188111
 Sym=      1.4
 Ene=       1.4392
 Spin= Alpha
 Occup=    0.000000
   1   0.00000000000
   2   0.00000000000
   3   0.67796496126
   4   0.00000000000
   5   0.00000000000
   6   0.00000000000
   7   0.00000000000
   8  -0.67796496126
   9   0.00000000000
  10   0.00000000000
  11   0.00000000000
  12   0.00000000000
  13   0.00000000000
  14   0.00000000000
  15   0.00000000000
  16   0.00000000000
  17   0.00000000000
  18   0.00000000000
  19   0.00000000000
  20   0.00000000000
  21   0.00000000000
  22   0.00000000000
  23  -0.14443148276
  24   0.00000000000
  25   0.00000000000
 Sym=      7.1
 Ene=       1.4699
 Spin= Alpha
 Occup=    0.000000
   1   0.14732656650
   2  -0.36127262557
   3   0.00000000000
   4   0.26262084525
   5   0.46052729254
   6   0.14732656650
   7  -0.36127262557
   8   0.00000000000
   9  -0.26262084525
  10   0.46052729254
  11  -0.39907297461
  12  -1.67504227301
  13   2.45032384474
  14   0.00000000000
  15   0.00000000000
  16   0.25663470833
  17   0.00000000000
  18   0.00000000000
  19  -0.52896871494
  20  -0.18688707238
  21  -0.27354170904
  22  -0.05727731506
  23   0.00000000000
  24   0.00000000000
  25   0.00000000000
 Sym=      3.2
 Ene=       1.6790
 Spin= Alpha
 Occup=    0.000000
   1   0.00000000000
   2   0.00000000000
   3   0.74245143931
   4   0.00000000000
   5   0.00000000000
   6   0.00000000000
   7   0.00000000000
   8   0.74245143931
   9   0.00000000000
  10   0.00000000000
  11   0.00000000000
  12   0.00000000000
  13   0.00000000000
  14   0.27697404549
  15   0.00000000000
  16   0.00000000000
  17  -0.81543878694
  18   0.00000000000
  19   0.00000000000
  20   0.00000000000
  21   0.00000000000
  22   0.00000000000
  23   0.00000000000
  24   0.15871167283
  25   0.00000000000
 Sym=      8.1
 Ene=       1.7691
 Spin= Alpha
 Occup=    0.000000
   1  -1.02259789541
   2   0.23848413558
   3   0.00000000000
   4  -0.29006968964
   5  -0.29746521931
   6  -1.02259789541
   7   0.23848413558
   8   0.00000000000
   9   0.29006968964
  10  -0.29746521931
  11  -0.60458900376
  12  -2.36254689963
  13   3.84754273593
  14   0.00000000000
  15   0.00000000000
  16  -0.43247426009
  17   0.00000000000
  18   0.00000000000
  19   1.25144816236
  20  -0.10985170838
  21  -0.23199372784
  22  -0.38149745798
  23   0.00000000000
  24   0.00000000000
  25   0.00000000000
 Sym=      5.3
 Ene=       1.7913
 Spin= Alpha
 Occup=    0.000000
   1  -0.67158972045
   2   0.22588018653
   3   0.00000000000
   4   0.37226207142
   5   0.66151878033
   6   0.67158972045
   7  -0.22588018653
   8   0.00000000000
   9   0.37226207142
  10  -0.66151878033
  11   0.00000000000
  12   0.00000000000
  13   0.00000000000
  14   0.00000000000
  15   0.34588367706
  16   0.00000000000
  17   0.00000000000
  18  -1.16762206080
  19   0.00000000000
  20   0.00000000000
  21   0.00000000000
  22   0.00000000000
  23   0.00000000000
  24   0.00000000000
  25   0.01885336476
 Sym=      6.3
 Ene=       2.1793
 Spin= Alpha
 Occup=    0.000000
   1   0.24903557919
   2   0.21533980977
   3   0.00000000000
   4   0.63582712831
   5  -0.53800639928
   6  -0.24903557919
   7  -0.21533980977
   8   0.00000000000
   9   0.63582712831
  10   0.53800639928
  11   0.00000000000
  12   0.00000000000
  13   0.00000000000
  14   0.00000000000
  15   0.98498954995
  16   0.00000000000
  17   0.00000000000
  18  -0.20868349399
  19   0.00000000000
  20   0.00000000000
  21   0.00000000000
  22   0.00000000000
  23   0.00000000000
  24   0.00000000000
  25  -0.11681229929
 Sym=      9.1
 Ene=       2.2141
 Spin= Alpha
 Occup=    0.000000
   1   0.74646235447
   2  -0.11516687532
   3   0.00000000000
   4   0.81738949826
   5  -0.42117887186
   6   0.74646235447
   7  -0.11516687532
   8   0.00000000000
   9  -0.81738949826
  10  -0.42117887186
  11   0.08511041833
  12   0.05240814207
  13  -1.38152569800
  14   0.00000000000
  15   0.00000000000
  16  -0.69243608564
  17   0.00000000000
  18   0.00000000000
  19  -0.08978993639
  20  -0.22562357932
  21   0.12539571455
  22   0.06929709263
  23   0.00000000000
  24   0.00000000000
  25   0.00000000000
 Sym=      4.2
 Ene=       3.1604
 Spin= Alpha
 Occup=    0.000000
   1   0.00000000000
   2   0.00000000000
   3  -0.29175020391
   4   0.00000000000
   5   0.00000000000
   6   0.00000000000
   7   0.00000000000
   8  -0.29175020391
   9   0.00000000000
  10   0.00000000000
  11   0.00000000000
  12   0.00000000000
  13   0.00000000000
  14  -0.07188703444
  15   0.00000000000
  16   0.00000000000
  17   0.24707297842
  18   0.00000000000
  19   0.00000000000
  20   0.00000000000
  21   0.00000000000
  22   0.00000000000
  23   0.00000000000
  24   1.01095949086
  25   0.00000000000
 Sym=      2.4
 Ene=       3.2335
 Spin= Alpha
 Occup=    0.000000
   1   0.00000000000
   2   0.00000000000
   3   0.29913840038
   4   0.00000000000
   5   0.00000000000
   6   0.00000000000
   7   0.00000000000
   8  -0.29913840038
   9   0.00000000000
  10   0.00000000000
  11   0.00000000000
  12   0.00000000000
  13   0.00000000000
  14   0.00000000000
  15   0.00000000000
  16   0.00000000000
  17   0.00000000000
  18   0.00000000000
  19   0.00000000000
  20   0.00000000000
  21   0.00000000000
  22   0.00000000000
  23   1.02928843749
  24   0.00000000000
  25   0.00000000000
 Sym=     10.1
 Ene=       3.3107
 Spin= Alpha
 Occup=    0.000000
   1  -0.36660348493
   2   0.14261675666
   3   0.00000000000
   4  -0.31063526442
   5  -0.23968599638
   6  -0.36660348493
   7   0.14261675666
   8   0.00000000000
   9   0.31063526442
  10  -0.23968599638
  11  -0.07872151153
  12  -0.26114890345
  13   0.61158085079
  14   0.00000000000
  15   0.00000000000
  16  -0.04851531534
  17   0.00000000000
  18   0.00000000000
  19   0.43570898197
  20  -0.49741262898
  21  -0.56204103233
  22   1.01114590945
  23   0.00000000000
  24   0.00000000000
  25   0.00000000000
 Sym=     11.1
 Ene=       3.7610
 Spin= Alpha
 Occup=    0.000000
   1   1.37084135687
   2  -0.49945837981
   3   0.00000000000
   4   0.56190045140
   5  -0.40956612571
   6   1.37084135687
   7  -0.49945837981
   8   0.00000000000
   9  -0.56190045140
  10  -0.40956612571
  11   0.24419065587
  12   0.68453062467
  13  -2.24179143196
  14   0.00000000000
  15   0.00000000000
  16  -0.27322966701
  17   0.00000000000
  18   0.00000000000
  19  -0.58523923399
  20   1.05684792112
  21  -0.90891326345
  22   0.07080525339
  23   0.00000000000
  24   0.00000000000
  25   0.00000000000
 Sym=      7.3
 Ene=       3.9733
 Spin= Alpha
 Occup=    0.000000
   1   1.24051727402
   2  -0.36915128234
   3   0.00000000000
   4   0.53302229601
   5  -0.40330101724
   6  -1.24051727402
   7   0.36915128234
   8   0.00000000000
   9   0.53302229601
  10   0.40330101724
  11   0.00000000000
  12   0.00000000000
  13   0.00000000000
  14   0.00000000000
  15   0.31522206929
  16   0.00000000000
  17   0.00000000000
  18   0.86229603184
  19   0.00000000000
  20   0.00000000000
  21   0.00000000000
  22   0.00000000000
  23   0.00000000000
  24   0.00000000000
  25   1.24029088297
 Sym=     12.1
 Ene=       5.8582
 Spin= Alpha
 Occup=    0.000000
   1   0.07022711763
   2  -0.21379245310
   3   0.00000000000
   4   0.10731081506
   5  -0.09206451197
   6   0.07022711763
   7  -0.21379245310
   8   0.00000000000
   9  -0.10731081506
  10  -0.09206451197
  11   0.35413601302
  12   3.35014457267
  13  -0.29964974102
  14   0.00000000000
  15   0.00000000000
  16  -0.12924421641
  17   0.00000000000
  18   0.00000000000
  19   0.14186007811
  20  -1.40062084382
  21  -1.48526365675
  22  -1.42971498938
  23   0.00000000000
  24   0.00000000000
  25   0.00000000000
