[Molden Format]
[Atoms] (AU)
H    1    1         0.000000000000       0.952627944163       0.000000000000
H    2    1         0.825000000000      -0.476313972081       0.000000000000
H    3    1        -0.825000000000      -0.476313972081       0.000000000000
[GTO]
  1 0
 s    3  1.00
       33.8700000000         0.0060680000
        5.0950000000         0.0453080000
        1.1590000000         0.2028220000
 s    1  1.00
        0.3258000000         1.0000000000
 s    1  1.00
        0.1027000000         1.0000000000
 p    1  1.00
        1.4070000000         1.0000000000
 p    1  1.00
        0.3880000000         1.0000000000
 d    1  1.00
        1.0570000000         1.0000000000

  2 0
 s    3  1.00
       33.8700000000         0.0060680000
        5.0950000000         0.0453080000
        1.1590000000         0.2028220000
 s    1  1.00
        0.3258000000         1.0000000000
 s    1  1.00
        0.1027000000         1.0000000000
 p    1  1.00
        1.4070000000         1.0000000000
 p    1  1.00
        0.3880000000         1.0000000000
 d    1  1.00
        1.0570000000         1.0000000000

  3 0
 s    3  1.00
       33.8700000000         0.0060680000
        5.0950000000         0.0453080000
        1.1590000000         0.2028220000
 s    1  1.00
        0.3258000000         1.0000000000
 s    1  1.00
        0.1027000000         1.0000000000
 p    1  1.00
        1.4070000000         1.0000000000
 p    1  1.00
        0.3880000000         1.0000000000
 d    1  1.00
        1.0570000000         1.0000000000

[5D]
[9G]

[MO]
 Sym= A1
 Ene=        -1.2076515158
 Spin= Alpha
 Occup=  2.0000
  1       0.170811960588
  2       0.225277620291
  3       0.028273361342
  4       0.000000000000
  5      -0.018500636701
  6       0.000000000000
  7       0.000000000000
  8      -0.028331754704
  9       0.000000000000
 10      -0.001822517284
 11       0.000000000000
 12       0.000000000000
 13      -0.002007976378
 14       0.000000000000
 15       0.170811960588
 16       0.225277620291
 17       0.028273361342
 18      -0.016022021369
 19       0.009250318350
 20       0.000000000000
 21      -0.024536019307
 22       0.014165877352
 23       0.000000000000
 24      -0.001822517284
 25       0.000000000000
 26       0.000000000000
 27       0.001003988189
 28      -0.001738958554
 29       0.170811960588
 30       0.225277620291
 31       0.028273361342
 32       0.016022021369
 33       0.009250318350
 34       0.000000000000
 35       0.024536019307
 36       0.014165877352
 37       0.000000000000
 38      -0.001822517284
 39       0.000000000000
 40       0.000000000000
 41       0.001003988189
 42       0.001738958554
 Sym= B1
 Ene=        -0.1923556919
 Spin= Alpha
 Occup=  0.0000
  1       0.000000000000
  2       0.000000000000
  3       0.000000000000
  4       0.013544790552
  5       0.000000000000
  6       0.000000000000
  7       0.060739141991
  8       0.000000000000
  9       0.000000000000
 10       0.000000000000
 11       0.000000000000
 12       0.000000000000
 13       0.000000000000
 14      -0.005668512903
 15       0.122299412647
 16       0.252126978858
 17       1.341002424298
 18       0.013897291102
 19      -0.000203516287
 20       0.000000000000
 21       0.026068839849
 22       0.020016908274
 23       0.000000000000
 24       0.001335759510
 25       0.000000000000
 26       0.000000000000
 27      -0.002773316856
 28      -0.000864987203
 29      -0.122299412647
 30      -0.252126978858
 31      -1.341002424298
 32       0.013897291102
 33       0.000203516287
 34       0.000000000000
 35       0.026068839849
 36      -0.020016908274
 37       0.000000000000
 38      -0.001335759510
 39       0.000000000000
 40       0.000000000000
 41       0.002773316856
 42      -0.000864987203
 Sym= A1
 Ene=        -0.1923556919
 Spin= Alpha
 Occup=  0.0000
  1       0.141219197627
  2       0.291131158228
  3       1.548456221305
  4       0.000000000000
  5       0.014014791286
  6       0.000000000000
  7       0.000000000000
  8       0.014512072468
  9       0.000000000000
 10       0.001542402225
 11       0.000000000000
 12       0.000000000000
 13       0.000736188030
 14       0.000000000000
 15      -0.070609598813
 16      -0.145565579114
 17      -0.774228110653
 18      -0.000203516287
 19       0.013662290735
 20       0.000000000000
 21       0.020016908274
 22       0.049182374610
 23       0.000000000000
 24      -0.000771201113
 25       0.000000000000
 26       0.000000000000
 27      -0.004067337669
 28      -0.002773316856
 29      -0.070609598813
 30      -0.145565579114
 31      -0.774228110653
 32       0.000203516287
 33       0.013662290735
 34       0.000000000000
 35      -0.020016908274
 36       0.049182374610
 37       0.000000000000
 38      -0.000771201113
 39       0.000000000000
 40       0.000000000000
 41      -0.004067337669
 42       0.002773316856
 Sym= A1
 Ene=        -0.0346984922
 Spin= Alpha
 Occup=  0.0000
  1       0.048695980492
  2       0.480763704257
  3      -0.601751676900
  4       0.000000000000
  5      -0.020415266423
  6       0.000000000000
  7       0.000000000000
  8       0.020404908537
  9       0.000000000000
 10       0.006006069843
 11       0.000000000000
 12       0.000000000000
 13       0.000687203204
 14       0.000000000000
 15       0.048695980492
 16       0.480763704257
 17      -0.601751676900
 18      -0.017680139347
 19       0.010207633211
 20       0.000000000000
 21       0.017671169155
 22      -0.010202454268
 23       0.000000000000
 24       0.006006069843
 25       0.000000000000
 26       0.000000000000
 27      -0.000343601602
 28       0.000595135432
 29       0.048695980492
 30       0.480763704257
 31      -0.601751676900
 32       0.017680139347
 33       0.010207633211
 34       0.000000000000
 35      -0.017671169155
 36      -0.010202454268
 37       0.000000000000
 38       0.006006069843
 39       0.000000000000
 40       0.000000000000
 41      -0.000343601602
 42      -0.000595135432
 Sym= B2
 Ene=         0.1939091777
 Spin= Alpha
 Occup=  0.0000
  1       0.000000000000
  2       0.000000000000
  3       0.000000000000
  4       0.000000000000
  5       0.000000000000
  6       0.030848504141
  7       0.000000000000
  8       0.000000000000
  9      -0.408504525306
 10       0.000000000000
 11       0.000000000000
 12      -0.006524358347
 13       0.000000000000
 14       0.000000000000
 15       0.000000000000
 16       0.000000000000
 17       0.000000000000
 18       0.000000000000
 19       0.000000000000
 20       0.030848504141
 21       0.000000000000
 22       0.000000000000
 23      -0.408504525306
 24       0.000000000000
 25      -0.005650260072
 26       0.003262179173
 27       0.000000000000
 28       0.000000000000
 29       0.000000000000
 30       0.000000000000
 31       0.000000000000
 32       0.000000000000
 33       0.000000000000
 34       0.030848504141
 35       0.000000000000
 36       0.000000000000
 37      -0.408504525306
 38       0.000000000000
 39       0.005650260072
 40       0.003262179173
 41       0.000000000000
 42       0.000000000000
 Sym= B1
 Ene=         0.2062141344
 Spin= Alpha
 Occup=  0.0000
  1       0.000000000000
  2       0.000000000000
  3       0.000000000000
  4       0.006607542980
  5       0.000000000000
  6       0.000000000000
  7      -0.172513189982
  8       0.000000000000
  9       0.000000000000
 10       0.000000000000
 11       0.000000000000
 12       0.000000000000
 13       0.000000000000
 14      -0.008503416545
 15      -0.119766244386
 16      -0.979889278203
 17       2.389747688645
 18       0.025094646524
 19      -0.010673534207
 20       0.000000000000
 21      -0.188207531852
 22       0.009061132503
 23       0.000000000000
 24       0.007910719955
 25       0.000000000000
 26       0.000000000000
 27      -0.007357762707
 28       0.004240602294
 29       0.119766244386
 30       0.979889278203
 31      -2.389747688645
 32       0.025094646524
 33       0.010673534207
 34       0.000000000000
 35      -0.188207531852
 36      -0.009061132503
 37       0.000000000000
 38      -0.007910719955
 39       0.000000000000
 40       0.000000000000
 41       0.007357762707
 42       0.004240602294
 Sym= A1
 Ene=         0.2062141344
 Spin= Alpha
 Occup=  0.0000
  1       0.138294146872
  2       1.131478677095
  3      -2.759442942669
  4       0.000000000000
  5      -0.031257014371
  6       0.000000000000
  7       0.000000000000
  8       0.193438979141
  9       0.000000000000
 10      -0.009134512591
 11       0.000000000000
 12       0.000000000000
 13      -0.008488608573
 14       0.000000000000
 15      -0.069147073436
 16      -0.565739338547
 17       1.379721471335
 18       0.010673534207
 19      -0.012769910828
 20       0.000000000000
 21      -0.009061132503
 22       0.177744637272
 23       0.000000000000
 24       0.004567256295
 25       0.000000000000
 26       0.000000000000
 27       0.004255410265
 28       0.007357762707
 29      -0.069147073436
 30      -0.565739338547
 31       1.379721471335
 32      -0.010673534207
 33      -0.012769910828
 34       0.000000000000
 35       0.009061132503
 36       0.177744637272
 37       0.000000000000
 38       0.004567256295
 39       0.000000000000
 40       0.000000000000
 41       0.004255410265
 42      -0.007357762707
 Sym= A1
 Ene=         0.5743713363
 Spin= Alpha
 Occup=  0.0000
  1       0.023458891222
  2       1.655000058721
  3      -0.065032917485
  4       0.000000000000
  5      -0.036257357649
  6       0.000000000000
  7       0.000000000000
  8      -0.052883279135
  9       0.000000000000
 10      -0.021304049564
 11       0.000000000000
 12       0.000000000000
 13       0.032198066100
 14       0.000000000000
 15      -0.011729445611
 16      -0.827500029361
 17       0.032516458743
 18       0.048785613613
 19       0.048241803807
 20       0.000000000000
 21      -0.427593281995
 22      -0.793496568525
 23       0.000000000000
 24       0.010652024782
 25       0.000000000000
 26       0.000000000000
 27       0.036729716824
 28       0.002616349765
 29      -0.011729445611
 30      -0.827500029361
 31       0.032516458743
 32      -0.048785613613
 33       0.048241803807
 34       0.000000000000
 35       0.427593281995
 36      -0.793496568525
 37       0.000000000000
 38       0.010652024782
 39       0.000000000000
 40       0.000000000000
 41       0.036729716824
 42      -0.002616349765
 Sym= B1
 Ene=         0.5743713363
 Spin= Alpha
 Occup=  0.0000
  1       0.000000000000
  2       0.000000000000
  3       0.000000000000
  4       0.076408190959
  5       0.000000000000
  6       0.000000000000
  7      -1.040367664988
  8       0.000000000000
  9       0.000000000000
 10       0.000000000000
 11       0.000000000000
 12       0.000000000000
 13       0.000000000000
 14       0.038240267065
 15       0.020315995743
 16       1.433272094116
 17      -0.056320158624
 18      -0.008090970497
 19       0.048785613613
 20       0.000000000000
 21      -0.299754375598
 22      -0.427593281995
 23       0.000000000000
 24      -0.018449848125
 25       0.000000000000
 26       0.000000000000
 27       0.002616349765
 28       0.033708616341
 29      -0.020315995743
 30      -1.433272094116
 31       0.056320158624
 32      -0.008090970497
 33      -0.048785613613
 34       0.000000000000
 35      -0.299754375598
 36       0.427593281995
 37       0.000000000000
 38       0.018449848125
 39       0.000000000000
 40       0.000000000000
 41      -0.002616349765
 42       0.033708616341
 Sym= A2
 Ene=         0.6907158002
 Spin= Alpha
 Occup=  0.0000
  1       0.000000000000
  2       0.000000000000
  3       0.000000000000
  4       0.000000000000
  5       0.000000000000
  6       0.000000000000
  7       0.000000000000
  8       0.000000000000
  9       0.000000000000
 10       0.000000000000
 11       0.030101485675
 12       0.000000000000
 13       0.000000000000
 14       0.000000000000
 15       0.000000000000
 16       0.000000000000
 17       0.000000000000
 18       0.000000000000
 19       0.000000000000
 20       0.071763671546
 21       0.000000000000
 22       0.000000000000
 23      -1.213561249690
 24       0.000000000000
 25       0.057186189163
 26      -0.015637360850
 27       0.000000000000
 28       0.000000000000
 29       0.000000000000
 30       0.000000000000
 31       0.000000000000
 32       0.000000000000
 33       0.000000000000
 34      -0.071763671546
 35       0.000000000000
 36       0.000000000000
 37       1.213561249690
 38       0.000000000000
 39       0.057186189163
 40       0.015637360850
 41       0.000000000000
 42       0.000000000000
 Sym= B2
 Ene=         0.6907158002
 Spin= Alpha
 Occup=  0.0000
  1       0.000000000000
  2       0.000000000000
  3       0.000000000000
  4       0.000000000000
  5       0.000000000000
  6       0.082865550170
  7       0.000000000000
  8       0.000000000000
  9      -1.401299828373
 10       0.000000000000
 11       0.000000000000
 12       0.066214423659
 13       0.000000000000
 14       0.000000000000
 15       0.000000000000
 16       0.000000000000
 17       0.000000000000
 18       0.000000000000
 19       0.000000000000
 20      -0.041432775085
 21       0.000000000000
 22       0.000000000000
 23       0.700649914187
 24       0.000000000000
 25      -0.015637360850
 26       0.039129720171
 27       0.000000000000
 28       0.000000000000
 29       0.000000000000
 30       0.000000000000
 31       0.000000000000
 32       0.000000000000
 33       0.000000000000
 34      -0.041432775085
 35       0.000000000000
 36       0.000000000000
 37       0.700649914187
 38       0.000000000000
 39       0.015637360850
 40       0.039129720171
 41       0.000000000000
 42       0.000000000000
 Sym= A1
 Ene=         0.7024262278
 Spin= Alpha
 Occup=  0.0000
  1       0.013316720553
  2      -0.762122608250
  3       0.419244696184
  4       0.000000000000
  5       0.076809445174
  6       0.000000000000
  7       0.000000000000
  8      -0.779879081845
  9       0.000000000000
 10      -0.021145055731
 11       0.000000000000
 12       0.000000000000
 13      -0.018841706354
 14       0.000000000000
 15       0.013316720553
 16      -0.762122608250
 17       0.419244696184
 18       0.066518930772
 19      -0.038404722587
 20       0.000000000000
 21      -0.675395096758
 22       0.389939540923
 23       0.000000000000
 24      -0.021145055731
 25       0.000000000000
 26       0.000000000000
 27       0.009420853177
 28      -0.016317396354
 29       0.013316720553
 30      -0.762122608250
 31       0.419244696184
 32      -0.066518930772
 33      -0.038404722587
 34       0.000000000000
 35       0.675395096758
 36       0.389939540923
 37       0.000000000000
 38      -0.021145055731
 39       0.000000000000
 40       0.000000000000
 41       0.009420853177
 42       0.016317396354
 Sym= B1
 Ene=         1.0212671571
 Spin= Alpha
 Occup=  0.0000
  1       0.000000000000
  2       0.000000000000
  3       0.000000000000
  4       0.010572819564
  5       0.000000000000
  6       0.000000000000
  7       2.259193645839
  8       0.000000000000
  9       0.000000000000
 10       0.000000000000
 11       0.000000000000
 12       0.000000000000
 13       0.000000000000
 14      -0.223363453284
 15      -0.000000000000
 16      -0.000000000002
 17       0.000000000000
 18      -0.005286409782
 19      -0.009156330332
 20       0.000000000000
 21      -1.129596822918
 22      -1.956519089365
 23       0.000000000000
 24       0.000000000000
 25       0.000000000000
 26       0.000000000000
 27       0.193438424821
 28       0.111681726642
 29       0.000000000000
 30       0.000000000002
 31      -0.000000000000
 32      -0.005286409782
 33       0.009156330332
 34       0.000000000000
 35      -1.129596822918
 36       1.956519089365
 37       0.000000000000
 38      -0.000000000000
 39       0.000000000000
 40       0.000000000000
 41      -0.193438424821
 42       0.111681726642
 Sym= A1
 Ene=         1.1934549799
 Spin= Alpha
 Occup=  0.0000
  1       0.016112196609
  2      11.285909874705
  3       0.737718366316
  4       0.000000000000
  5      -0.047892614028
  6       0.000000000000
  7       0.000000000000
  8      -6.047198977927
  9       0.000000000000
 10      -0.202691015058
 11       0.000000000000
 12       0.000000000000
 13      -0.185622458123
 14       0.000000000000
 15      -0.008056098304
 16      -5.642954937353
 17      -0.368859183158
 18       0.008462954787
 19      -0.033234346354
 20       0.000000000000
 21       1.677034761315
 22      -3.142489565271
 23       0.000000000000
 24       0.101345507529
 25       0.000000000000
 26       0.000000000000
 27       0.065090609249
 28       0.144749256937
 29      -0.008056098304
 30      -5.642954937353
 31      -0.368859183158
 32      -0.008462954787
 33      -0.033234346354
 34       0.000000000000
 35      -1.677034761315
 36      -3.142489565271
 37       0.000000000000
 38       0.101345507529
 39       0.000000000000
 40       0.000000000000
 41       0.065090609249
 42      -0.144749256937
 Sym= B1
 Ene=         1.1934549799
 Spin= Alpha
 Occup=  0.0000
  1       0.000000000000
  2       0.000000000000
  3       0.000000000000
  4       0.028348257129
  5       0.000000000000
  6       0.000000000000
  7       2.174253094386
  8       0.000000000000
  9       0.000000000000
 10       0.000000000000
 11       0.000000000000
 12       0.000000000000
 13       0.000000000000
 14      -0.148661631707
 15      -0.013953571574
 16      -9.773884656308
 17      -0.638882846069
 18       0.043006524803
 19      -0.008462954787
 20       0.000000000000
 21       5.078962507039
 22      -1.677034761314
 23       0.000000000000
 24       0.175535568159
 25       0.000000000000
 26       0.000000000000
 27      -0.144749256936
 28       0.102051435665
 29       0.013953571574
 30       9.773884656308
 31       0.638882846069
 32       0.043006524803
 33       0.008462954787
 34       0.000000000000
 35       5.078962507039
 36       1.677034761314
 37       0.000000000000
 38      -0.175535568159
 39       0.000000000000
 40       0.000000000000
 41       0.144749256936
 42       0.102051435665
 Sym= A1
 Ene=         1.9472490728
 Spin= Alpha
 Occup=  0.0000
  1       1.060858196349
  2      -8.062907802432
  3       1.286229683004
  4       0.000000000000
  5       0.362462381657
  6       0.000000000000
  7       0.000000000000
  8       2.998244089817
  9       0.000000000000
 10       0.282141152929
 11       0.000000000000
 12       0.000000000000
 13       0.265228473455
 14       0.000000000000
 15      -0.530429098175
 16       4.031453901217
 17      -0.643114841502
 18      -0.069568319362
 19       0.241966517925
 20       0.000000000000
 21      -0.835804353796
 22       1.550588483855
 23       0.000000000000
 24      -0.141070576464
 25       0.000000000000
 26       0.000000000000
 27      -0.180977829973
 28      -0.257617329398
 29      -0.530429098175
 30       4.031453901217
 31      -0.643114841502
 32       0.069568319362
 33       0.241966517925
 34       0.000000000000
 35       0.835804353796
 36       1.550588483855
 37       0.000000000000
 38      -0.141070576464
 39       0.000000000000
 40       0.000000000000
 41      -0.180977829973
 42       0.257617329398
 Sym= B1
 Ene=         1.9472490728
 Spin= Alpha
 Occup=  0.0000
  1       0.000000000000
  2       0.000000000000
  3       0.000000000000
  4       0.201801230014
  5       0.000000000000
  6       0.000000000000
  7       1.068036615203
  8       0.000000000000
  9       0.000000000000
 10       0.000000000000
 11       0.000000000000
 12       0.000000000000
 13       0.000000000000
 14      -0.329713264449
 15       0.918730147852
 16      -6.982682985281
 17       1.113907580583
 18       0.322297093746
 19      -0.069568319362
 20       0.000000000000
 21       2.515692221165
 22      -0.835804353797
 23       0.000000000000
 24       0.244341405889
 25       0.000000000000
 26       0.000000000000
 27      -0.257617329398
 28       0.116493038979
 29      -0.918730147852
 30       6.982682985281
 31      -1.113907580583
 32       0.322297093746
 33       0.069568319362
 34       0.000000000000
 35       2.515692221165
 36       0.835804353797
 37       0.000000000000
 38      -0.244341405889
 39       0.000000000000
 40       0.000000000000
 41       0.257617329398
 42       0.116493038979
 Sym= A1
 Ene=         1.9769282663
 Spin= Alpha
 Occup=  0.0000
  1       0.706357416122
  2      -0.612837573827
  3       0.219334700087
  4       0.000000000000
  5      -0.141452759016
  6       0.000000000000
  7       0.000000000000
  8       0.274968738815
  9       0.000000000000
 10      -0.167502036754
 11       0.000000000000
 12       0.000000000000
 13      -0.044633596408
 14       0.000000000000
 15       0.706357416121
 16      -0.612837573816
 17       0.219334700086
 18      -0.122501682743
 19       0.070726379508
 20       0.000000000000
 21       0.238129913057
 22      -0.137484369405
 23       0.000000000000
 24      -0.167502036754
 25       0.000000000000
 26       0.000000000000
 27       0.022316798204
 28      -0.038653828352
 29       0.706357416121
 30      -0.612837573816
 31       0.219334700086
 32       0.122501682743
 33       0.070726379508
 34       0.000000000000
 35      -0.238129913057
 36      -0.137484369405
 37       0.000000000000
 38      -0.167502036754
 39       0.000000000000
 40       0.000000000000
 41       0.022316798204
 42       0.038653828352
 Sym= B2
 Ene=         2.5798566909
 Spin= Alpha
 Occup=  0.0000
  1       0.000000000000
  2       0.000000000000
  3       0.000000000000
  4       0.000000000000
  5       0.000000000000
  6       0.409739426851
  7       0.000000000000
  8       0.000000000000
  9      -0.269014434036
 10       0.000000000000
 11       0.000000000000
 12      -0.286668241119
 13       0.000000000000
 14       0.000000000000
 15       0.000000000000
 16       0.000000000000
 17       0.000000000000
 18       0.000000000000
 19       0.000000000000
 20       0.409739426851
 21       0.000000000000
 22       0.000000000000
 23      -0.269014434036
 24       0.000000000000
 25      -0.248261979268
 26       0.143334120560
 27       0.000000000000
 28       0.000000000000
 29       0.000000000000
 30       0.000000000000
 31       0.000000000000
 32       0.000000000000
 33       0.000000000000
 34       0.409739426851
 35       0.000000000000
 36       0.000000000000
 37      -0.269014434036
 38       0.000000000000
 39       0.248261979268
 40       0.143334120560
 41       0.000000000000
 42       0.000000000000
 Sym= A1
 Ene=         2.7515617723
 Spin= Alpha
 Occup=  0.0000
  1       0.075709167663
  2       0.170911493144
  3      -0.103044066468
  4       0.000000000000
  5      -0.253562243585
  6       0.000000000000
  7       0.000000000000
  8       0.395300175497
  9       0.000000000000
 10       0.309771435509
 11       0.000000000000
 12       0.000000000000
 13      -0.298006432753
 14       0.000000000000
 15       0.075709167663
 16       0.170911493147
 17      -0.103044066468
 18      -0.219591344386
 19       0.126781121793
 20       0.000000000000
 21       0.342339994100
 22      -0.197650087748
 23       0.000000000000
 24       0.309771435509
 25       0.000000000000
 26       0.000000000000
 27       0.149003216377
 28      -0.258081141255
 29       0.075709167663
 30       0.170911493147
 31      -0.103044066468
 32       0.219591344386
 33       0.126781121793
 34       0.000000000000
 35      -0.342339994100
 36      -0.197650087748
 37       0.000000000000
 38       0.309771435509
 39       0.000000000000
 40       0.000000000000
 41       0.149003216377
 42       0.258081141255
 Sym= B2
 Ene=         2.9848230866
 Spin= Alpha
 Occup=  0.0000
  1       0.000000000000
  2       0.000000000000
  3       0.000000000000
  4       0.000000000000
  5       0.000000000000
  6       0.203250880603
  7       0.000000000000
  8       0.000000000000
  9      -0.566252579005
 10       0.000000000000
 11       0.000000000000
 12      -0.058212677059
 13       0.000000000000
 14       0.000000000000
 15       0.000000000000
 16       0.000000000000
 17       0.000000000000
 18       0.000000000000
 19       0.000000000000
 20      -0.101625440301
 21       0.000000000000
 22       0.000000000000
 23       0.283126289502
 24       0.000000000000
 25       0.340264538280
 26       0.531142791256
 27       0.000000000000
 28       0.000000000000
 29       0.000000000000
 30       0.000000000000
 31       0.000000000000
 32       0.000000000000
 33       0.000000000000
 34      -0.101625440301
 35       0.000000000000
 36       0.000000000000
 37       0.283126289502
 38       0.000000000000
 39      -0.340264538280
 40       0.531142791256
 41       0.000000000000
 42       0.000000000000
 Sym= A2
 Ene=         2.9848230866
 Spin= Alpha
 Occup=  0.0000
  1       0.000000000000
  2       0.000000000000
  3       0.000000000000
  4       0.000000000000
  5       0.000000000000
  6       0.000000000000
  7       0.000000000000
  8       0.000000000000
  9       0.000000000000
 10       0.000000000000
 11       0.727594614027
 12       0.000000000000
 13       0.000000000000
 14       0.000000000000
 15       0.000000000000
 16       0.000000000000
 17       0.000000000000
 18       0.000000000000
 19       0.000000000000
 20       0.176020425943
 21       0.000000000000
 22       0.000000000000
 23      -0.490389118377
 24       0.000000000000
 25       0.138239145712
 26       0.340264538280
 27       0.000000000000
 28       0.000000000000
 29       0.000000000000
 30       0.000000000000
 31       0.000000000000
 32       0.000000000000
 33       0.000000000000
 34      -0.176020425943
 35       0.000000000000
 36       0.000000000000
 37       0.490389118377
 38       0.000000000000
 39       0.138239145712
 40      -0.340264538280
 41       0.000000000000
 42       0.000000000000
 Sym= B1
 Ene=         3.0010651535
 Spin= Alpha
 Occup=  0.0000
  1       0.000000000000
  2       0.000000000000
  3       0.000000000000
  4       0.791311740461
  5       0.000000000000
  6       0.000000000000
  7      -0.549808167949
  8       0.000000000000
  9       0.000000000000
 10       0.000000000000
 11       0.000000000000
 12       0.000000000000
 13       0.000000000000
 14       0.061883812412
 15      -0.177338687798
 16      -0.376135441806
 17      -0.001850703531
 18      -0.033555866027
 19       0.476237534651
 20       0.000000000000
 21       0.452951669904
 22      -0.578943662316
 23       0.000000000000
 24      -0.086175214609
 25       0.000000000000
 26       0.000000000000
 27      -0.166235879248
 28       0.349812801310
 29       0.177338687798
 30       0.376135441806
 31       0.001850703531
 32      -0.033555866027
 33      -0.476237534651
 34       0.000000000000
 35       0.452951669904
 36       0.578943662316
 37       0.000000000000
 38       0.086175214609
 39       0.000000000000
 40       0.000000000000
 41       0.166235879248
 42       0.349812801310
 Sym= A1
 Ene=         3.0010651535
 Spin= Alpha
 Occup=  0.0000
  1       0.204773078275
  2       0.434323797159
  3       0.002137008362
  4       0.000000000000
  5       0.308511734854
  6       0.000000000000
  7       0.000000000000
  8      -0.787204949187
  9       0.000000000000
 10       0.099506566704
 11       0.000000000000
 12       0.000000000000
 13      -0.445789130942
 14       0.000000000000
 15      -0.102386539139
 16      -0.217161898578
 17      -0.001068504182
 18      -0.476237534653
 19      -0.516355871631
 20       0.000000000000
 21       0.578943662318
 22       0.215554888663
 23       0.000000000000
 24      -0.049753283352
 25       0.000000000000
 26       0.000000000000
 27      -0.157860142045
 28       0.166235879249
 29      -0.102386539139
 30      -0.217161898578
 31      -0.001068504182
 32       0.476237534653
 33      -0.516355871631
 34       0.000000000000
 35      -0.578943662318
 36       0.215554888663
 37       0.000000000000
 38      -0.049753283352
 39       0.000000000000
 40       0.000000000000
 41      -0.157860142045
 42      -0.166235879249
 Sym= A1
 Ene=         3.0381669673
 Spin= Alpha
 Occup=  0.0000
  1       0.195014411495
  2      -0.406469894975
  3       0.176852666657
  4       0.000000000000
  5       0.629360541170
  6       0.000000000000
  7       0.000000000000
  8      -0.509866485298
  9       0.000000000000
 10      -0.017550458689
 11       0.000000000000
 12       0.000000000000
 13      -0.212059149169
 14       0.000000000000
 15       0.195014411494
 16      -0.406469894976
 17       0.176852666657
 18       0.545042216791
 19      -0.314680270586
 20       0.000000000000
 21      -0.441557328803
 22       0.254933242649
 23       0.000000000000
 24      -0.017550458690
 25       0.000000000000
 26       0.000000000000
 27       0.106029574583
 28      -0.183648610284
 29       0.195014411494
 30      -0.406469894976
 31       0.176852666657
 32      -0.545042216791
 33      -0.314680270586
 34       0.000000000000
 35       0.441557328803
 36       0.254933242649
 37       0.000000000000
 38      -0.017550458690
 39       0.000000000000
 40       0.000000000000
 41       0.106029574583
 42       0.183648610284
 Sym= B1
 Ene=         3.3948738162
 Spin= Alpha
 Occup=  0.0000
  1       0.000000000000
  2       0.000000000000
  3       0.000000000000
  4       0.119808983593
  5       0.000000000000
  6       0.000000000000
  7      -1.845606442614
  8       0.000000000000
  9       0.000000000000
 10       0.000000000000
 11       0.000000000000
 12       0.000000000000
 13       0.000000000000
 14       0.971325776980
 15       0.000000000000
 16      -0.000000000000
 17      -0.000000000000
 18      -0.059904491797
 19      -0.103757623393