    -----------------------------------------------------------------------
          Psi4: An Open-Source Ab Initio Electronic Structure Package
                              Psi4 1.0.7 Driver

                          Git: Rev {master} 3eebe4e dirty

    J. M. Turney, A. C. Simmonett, R. M. Parrish, E. G. Hohenstein,
    F. A. Evangelista, J. T. Fermann, B. J. Mintz, L. A. Burns, J. J. Wilke,
    M. L. Abrams, N. J. Russ, M. L. Leininger, C. L. Janssen, E. T. Seidl,
    W. D. Allen, H. F. Schaefer, R. A. King, E. F. Valeev, C. D. Sherrill,
    and T. D. Crawford, WIREs Comput. Mol. Sci. 2, 556-565 (2012)
    (doi: 10.1002/wcms.93)

                         Additional Contributions by
    A. E. DePrince, U. Bozkaya, A. Yu. Sokolov, D. G. A. Smith, R. Di Remigio,
    R. M. Richard, J. F. Gonthier, H. R. McAlexander, M. Saitow, and
    B. P. Pritchard
    -----------------------------------------------------------------------


    Psi4 started on: Tue Aug  2 13:01:33 2016

    Process ID: 160324
    PSI4DATADIR: 
    Memory level set to 256.000 MB

  ==> Input File <==

--------------------------------------------------------------------------
#! H3+ FCI Energy
#! Change IOFF_MAX for aug-cc-pv6Z

memory 180000 mb

molecule {
  0 1
  Li     0.000000000    0.000000000   -0.390581739
  H      0.000000000    0.000000000    2.689671855
units bohr
symmetry c2v
no_reorient
}

set {
    basis            aug-cc-pVTZ
    reference        rhf
    print_mos        true
    print_basis      true
    molden_write     true
    puream           true
}
    

set {
    num_roots       1
    dipmom          true
    tdm             true
    tdm_print       true
    num_dets_print  -1          # ALL
}

# C2v      A_1     A_2     B_1     B_2
set num_dets_print -1
set {
    reference_sym   0
    num_roots       2
}

thisenergy = prop('ci',level=1, properties=['DIPOLE', 'TRANSITION_DIPOLE'])

set {
    reference_sym   2
    num_roots       1
}

thisenergy = prop('ci',level=1, properties=['DIPOLE', 'TRANSITION_DIPOLE'])

set {
    reference_sym   3
    num_roots       1
}

thisenergy = prop('ci',level=1, properties=['DIPOLE', 'TRANSITION_DIPOLE'])

--------------------------------------------------------------------------

  Memory set to 180.000 GiB by Python script.

*** tstart() called on 
*** at Tue Aug  2 13:01:34 2016


         ---------------------------------------------------------
                                   SCF
            by Justin Turney, Rob Parrish, and Andy Simmonett
                              RHF Reference
                       20 Threads, 180000 MiB Core
         ---------------------------------------------------------

  ==> Geometry <==

    Molecular point group: c2v
    Full point group: C_inf_v

    Geometry (in Bohr), charge = 0, multiplicity = 1:

       Center              X                  Y                   Z               Mass       
    ------------   -----------------  -----------------  -----------------  -----------------
          LI          0.000000000000     0.000000000000    -0.386892149961     7.016004548000
           H          0.000000000000     0.000000000000     2.693361444039     1.007825032070

  Running in c2v symmetry.

  Rotational constants: A = ************  B =      7.19993  C =      7.19993 [cm^-1]
  Rotational constants: A = ************  B = 215848.32411  C = 215848.32411 [MHz]
  Nuclear repulsion =    0.973945783504214

  Charge       = 0
  Multiplicity = 1
  Electrons    = 4
  Nalpha       = 2
  Nbeta        = 2

  ==> Algorithm <==

  SCF Algorithm Type is PK.
  DIIS enabled.
  MOM disabled.
  Fractional occupation disabled.
  Guess Type is SAD.
  Energy threshold   = 1.00e-10
  Density threshold  = 1.00e-10
  Integral threshold = 0.00e+00

  ==> Primary Basis <==

  Basis Set: AUG-CC-PVTZ
    Number of shells: 23
    Number of basis function: 69
    Number of Cartesian functions: 80
    Spherical Harmonics?: true
    Max angular momentum: 3

  -AO BASIS SET INFORMATION:
    Name                   = AUG-CC-PVTZ
    Total number of shells = 23
    Number of primitives   = 43
    Number of AO           = 80
    Number of SO           = 69
    Maximum AM             = 3
    Spherical Harmonics    = TRUE

  -Contraction Scheme:
    Atom   Type   All Primitives // Shells:
   ------ ------ --------------------------
       1    LI     21s 6p 3d 2f // 5s 4p 3d 2f 
       2     H     6s 3p 2d // 4s 3p 2d 

  ==> AO Basis Functions <==

    [ AUG-CC-PVTZ ]
    spherical
    ****
   LI   1
    S   9 1.00
                      5988.00000000           0.00013300
                       898.90000000           0.00102500
                       205.90000000           0.00527200
                        59.24000000           0.02092900
                        19.87000000           0.06634000
                         7.40600000           0.16577500
                         2.93000000           0.31503800
                         1.18900000           0.39352300
                         0.47980000           0.19087000
    S   9 1.00
                      5988.00000000          -0.00002100
                       898.90000000          -0.00016100
                       205.90000000          -0.00082000
                        59.24000000          -0.00332600
                        19.87000000          -0.01051900
                         7.40600000          -0.02809700
                         2.93000000          -0.05593600
                         1.18900000          -0.09923700
                         0.47980000          -0.11218900
    S   1 1.00
                         0.07509000           1.00000000
    S   1 1.00
                         0.02832000           1.00000000
    P   3 1.00
                         3.26600000           0.00863000
                         0.65110000           0.04753800
                         0.16960000           0.20977200
    P   1 1.00
                         0.05578000           1.00000000
    P   1 1.00
                         0.02050000           1.00000000
    D   1 1.00
                         0.18740000           1.00000000
    D   1 1.00
                         0.08010000           1.00000000
    F   1 1.00
                         0.18290000           1.00000000
    S   1 1.00
                         0.00760000           1.00000000
    P   1 1.00
                         0.00910000           1.00000000
    D   1 1.00
                         0.03710000           1.00000000
    F   1 1.00
                         0.08160000           1.00000000
    ****
    H   2
    S   3 1.00
                        33.87000000           0.00606800
                         5.09500000           0.04530800
                         1.15900000           0.20282200
    S   1 1.00
                         0.32580000           1.00000000
    S   1 1.00
                         0.10270000           1.00000000
    P   1 1.00
                         1.40700000           1.00000000
    P   1 1.00
                         0.38800000           1.00000000
    D   1 1.00
                         1.05700000           1.00000000
    S   1 1.00
                         0.02526000           1.00000000
    P   1 1.00
                         0.10200000           1.00000000
    D   1 1.00
                         0.24700000           1.00000000
    ****

  ==> Pre-Iterations <==

   -------------------------------------------------------
    Irrep   Nso     Nmo     Nalpha   Nbeta   Ndocc  Nsocc
   -------------------------------------------------------
     A1        30      30       0       0       0       0
     A2         7       7       0       0       0       0
     B1        16      16       0       0       0       0
     B2        16      16       0       0       0       0
   -------------------------------------------------------
    Total      69      69       2       2       2       0
   -------------------------------------------------------

  ==> Integral Setup <==

  Using in-core PK algorithm.
   Calculation information:
      Number of atoms:                   2
      Number of AO shells:              23
      Number of primitives:             43
      Number of atomic orbitals:        80
      Number of basis functions:        69

      Integral cutoff                 1.00e-12
      Number of threads:                20

  Performing in-core PK
  Using 5834640 doubles for integral storage.
  We computed 104972 shell quartets total.
  Whereas there are 38226 unique shell quartets.
   174.61 percent of shell quartets recomputed by reordering.
  ==> DiskJK: Disk-Based J/K Matrices <==

    J tasked:                  Yes
    K tasked:                  Yes
    wK tasked:                  No
    Memory (MB):            128746
    Schwarz Cutoff:          1E-12

    OpenMP threads:             20
  Minimum eigenvalue in the overlap matrix is 1.0383884647E-03.
  Using Symmetric Orthogonalization.
  SCF Guess: Superposition of Atomic Densities via on-the-fly atomic UHF.

  ==> Iterations <==

                        Total Energy        Delta E     RMS |[F,P]|

   @RHF iter   0:    -7.77812782452042   -7.77813e+00   4.52946e-03 
   @RHF iter   1:    -7.97956186695626   -2.01434e-01   2.11956e-03 
   @RHF iter   2:    -7.98625288706589   -6.69102e-03   3.84789e-04 DIIS
   @RHF iter   3:    -7.98669814110330   -4.45254e-04   1.01778e-04 DIIS
   @RHF iter   4:    -7.98676527116556   -6.71301e-05   2.56562e-05 DIIS
   @RHF iter   5:    -7.98677044225438   -5.17109e-06   2.71123e-06 DIIS
   @RHF iter   6:    -7.98677047381045   -3.15561e-08   2.82010e-07 DIIS
   @RHF iter   7:    -7.98677047414618   -3.35724e-10   3.71122e-08 DIIS
   @RHF iter   8:    -7.98677047415259   -6.41265e-12   3.69746e-09 DIIS
   @RHF iter   9:    -7.98677047415266   -7.28306e-14   4.41728e-10 DIIS
   @RHF iter  10:    -7.98677047415267   -5.32907e-15   4.71452e-11 DIIS

  ==> Post-Iterations <==

    Orbital Energies (a.u.)
    -----------------------

    Doubly Occupied:                                                      

       1A1    -2.449213     2A1    -0.299632  

    Virtual:                                                              

       3A1    -0.007768     1B2     0.016082     1B1     0.016082  
       4A1     0.023531     5A1     0.026145     2B2     0.051736  
       2B1     0.051736     6A1     0.076623     7A1     0.100230  
       8A1     0.104478     1A2     0.104478     3B1     0.112436  
       3B2     0.112436     9A1     0.117606     4B1     0.150961  
       4B2     0.150961    10A1     0.211523    11A1     0.268463  
       5B2     0.304176     5B1     0.304176     2A2     0.305554  
      12A1     0.305554    13A1     0.320370     6B1     0.322307  
       6B2     0.322307    14A1     0.334748     7B2     0.338802  
       7B1     0.338802    15A1     0.342156     3A2     0.342156  
       8B1     0.425036     8B2     0.425036    16A1     0.463464  
       9B1     0.539719     9B2     0.539719    17A1     0.645412  
      18A1     0.811845     4A2     0.811845    10B1     0.813252  
      10B2     0.813252    19A1     0.821334    20A1     0.848168  
      11B1     0.887182    11B2     0.887182    12B2     0.941078  
      12B1     0.941078     5A2     0.952332    21A1     0.952332  
      22A1     1.067438    23A1     1.092057     6A2     1.092057  
      24A1     1.293872    13B1     1.295815    13B2     1.295815  
      25A1     1.546786    14B1     1.575594    14B2     1.575594  
      26A1     3.254828    27A1     3.454715     7A2     4.097894  
      28A1     4.097894    15B1     4.170217    15B2     4.170217  
      29A1     4.258068    16B2     4.521976    16B1     4.521976  
      30A1     4.665030  

    Final Occupation by Irrep:
             A1    A2    B1    B2 
    DOCC [     2,    0,    0,    0 ]

  Energy converged.

  @RHF Final Energy:    -7.98677047415267

   => Energetics <=

    Nuclear Repulsion Energy =              0.9739457835042137
    One-Electron Energy =                 -12.4237429283684389
    Two-Electron Energy =                   3.4630266707115553
    DFT Exchange-Correlation Energy =       0.0000000000000000
    Empirical Dispersion Energy =           0.0000000000000000
    PCM Polarization Energy =               0.0000000000000000
    EFP Energy =                            0.0000000000000000
    Total Energy =                         -7.9867704741526708


  Saving occupied orbitals to File 180.

  ==> Molecular Orbitals <==

                 1            2            3            4            5

    1    0.9962430    0.0158206    0.0020243    0.0000000    0.0000000
    2   -0.0020837   -0.1603682   -0.0730692    0.0000000    0.0000000
    3   -0.0452321   -0.2854693   -0.0058745    0.0000000    0.0000000
    4    0.0076625   -0.0561469   -0.0941144    0.0000000    0.0000000
    5   -0.0276824   -0.1454431    0.0725172    0.0000000    0.0000000
    6    0.0000000    0.0000000    0.0000000    0.0000000    0.0175660
    7    0.0000000    0.0000000    0.0000000    0.0175660    0.0000000
    8   -0.0175549   -0.1161021    0.2394141    0.0000000    0.0000000
    9    0.0000000    0.0000000    0.0000000    0.0000000    0.1791509
   10    0.0000000    0.0000000    0.0000000    0.1791509    0.0000000
   11    0.0073221    0.0066939    0.1732827    0.0000000    0.0000000
   12    0.0000000    0.0000000    0.0000000    0.0000000   -0.4047868
   13    0.0000000    0.0000000    0.0000000   -0.4047868    0.0000000
   14   -0.0090331   -0.0289328   -0.0080164    0.0000000    0.0000000
   15    0.0000000    0.0000000    0.0000000    0.0000000   -0.0095756
   16    0.0000000    0.0000000    0.0000000   -0.0095756    0.0000000
   17   -0.0000000   -0.0000000   -0.0000000    0.0000000    0.0000000
   18    0.0000000    0.0000000    0.0000000    0.0000000    0.0000000
   19   -0.0063888   -0.0229744    0.0329897    0.0000000    0.0000000
   20    0.0000000    0.0000000    0.0000000    0.0000000    0.0587974
   21    0.0000000    0.0000000    0.0000000    0.0587974    0.0000000
   22    0.0000000    0.0000000    0.0000000    0.0000000    0.0000000
   23    0.0000000    0.0000000    0.0000000    0.0000000    0.0000000
   24   -0.0042855   -0.0100539   -0.0016660    0.0000000    0.0000000
   25    0.0000000    0.0000000    0.0000000    0.0000000    0.0032226
   26    0.0000000    0.0000000    0.0000000    0.0032226    0.0000000
   27    0.0000000   -0.0000000   -0.0000000    0.0000000    0.0000000
   28    0.0000000    0.0000000    0.0000000    0.0000000    0.0000000
   29    0.0000000    0.0000000    0.0000000    0.0000000   -0.0000000
   30    0.0000000    0.0000000    0.0000000    0.0000000    0.0000000
   31   -0.0004313    0.0058447   -0.6232524    0.0000000    0.0000000
   32   -0.0021290   -0.0010103    0.3338565    0.0000000    0.0000000
   33    0.0000000    0.0000000    0.0000000    0.0000000    1.2468559
   34    0.0000000    0.0000000    0.0000000    1.2468559    0.0000000
   35    0.0015002   -0.0062355   -0.0591992    0.0000000    0.0000000
   36    0.0000000    0.0000000    0.0000000    0.0000000   -0.1334148
   37    0.0000000    0.0000000    0.0000000   -0.1334148    0.0000000
   38   -0.0000000   -0.0000000   -0.0000000    0.0000000    0.0000000
   39    0.0000000    0.0000000    0.0000000    0.0000000    0.0000000
   40    0.0004844   -0.0048691    0.0102168    0.0000000    0.0000000
   41    0.0000000    0.0000000    0.0000000    0.0000000    0.0140609
   42    0.0000000    0.0000000    0.0000000    0.0140609    0.0000000
   43    0.0000000    0.0000000    0.0000000    0.0000000    0.0000000
   44    0.0000000    0.0000000    0.0000000    0.0000000    0.0000000
   45    0.0000000    0.0000000    0.0000000    0.0000000   -0.0000000
   46    0.0000000    0.0000000    0.0000000   -0.0000000    0.0000000
   47    0.0004946   -0.1674843    0.0234742    0.0000000    0.0000000
   48    0.0101859   -0.2876158    0.0498138    0.0000000    0.0000000
   49    0.0482551   -0.2669474   -0.0416717    0.0000000    0.0000000
   50    0.0006127    0.0028905    0.0000014    0.0000000    0.0000000
   51    0.0000000    0.0000000    0.0000000    0.0000000    0.0008250
   52    0.0000000    0.0000000    0.0000000    0.0008250    0.0000000
   53   -0.0080994    0.0097039   -0.0026204    0.0000000    0.0000000
   54    0.0000000    0.0000000    0.0000000    0.0000000   -0.0003801
   55    0.0000000    0.0000000    0.0000000   -0.0003801    0.0000000
   56    0.0003651   -0.0013199    0.0002966    0.0000000    0.0000000
   57    0.0000000    0.0000000    0.0000000    0.0000000   -0.0008935
   58    0.0000000    0.0000000    0.0000000   -0.0008935    0.0000000
   59    0.0000000   -0.0000000    0.0000000    0.0000000    0.0000000
   60    0.0000000    0.0000000    0.0000000    0.0000000    0.0000000
   61   -0.0029666   -0.0490622   -0.0663488    0.0000000    0.0000000
   62   -0.0171198    0.0027241    0.0205270    0.0000000    0.0000000
   63    0.0000000    0.0000000    0.0000000    0.0000000   -0.0338730
   64    0.0000000    0.0000000    0.0000000   -0.0338730    0.0000000
   65    0.0022646   -0.0066404    0.0011598    0.0000000    0.0000000
   66    0.0000000    0.0000000    0.0000000    0.0000000    0.0067684
   67    0.0000000    0.0000000    0.0000000    0.0067684    0.0000000
   68   -0.0000000   -0.0000000   -0.0000000    0.0000000    0.0000000
   69    0.0000000    0.0000000    0.0000000    0.0000000    0.0000000

 Ene    -2.4492131   -0.2996316   -0.0077681    0.0160818    0.0160818
 Sym            A1           A1           A1           B2           B1
 Occ             2            2            0            0            0


                 6            7            8            9           10

    1    0.0070188    0.0016261    0.0000000    0.0000000    0.0294950
    2    0.0976394    0.0038628    0.0000000    0.0000000   -0.0497371
    3    0.1935235   -0.3571022    0.0000000    0.0000000    0.7945918
    4   -1.0531464   -1.3782384    0.0000000    0.0000000   -5.9165152
    5   -0.0667654   -0.0140312    0.0000000    0.0000000    0.1210460
    6    0.0000000    0.0000000    0.0000000    0.0971859    0.0000000
    7    0.0000000    0.0000000    0.0971859    0.0000000    0.0000000
    8    0.0160484   -0.6010703    0.0000000    0.0000000    0.5896339
    9    0.0000000    0.0000000    0.0000000   -0.2455949    0.0000000
   10    0.0000000    0.0000000   -0.2455949    0.0000000    0.0000000
   11   -2.1516260    0.0247737    0.0000000    0.0000000   -4.2388643
   12    0.0000000    0.0000000    0.0000000    1.8127205    0.0000000
   13    0.0000000    0.0000000    1.8127205    0.0000000    0.0000000
   14   -0.0239052    0.0041644    0.0000000    0.0000000    0.0631475
   15    0.0000000    0.0000000    0.0000000   -0.0420641    0.0000000
   16    0.0000000    0.0000000   -0.0420641    0.0000000    0.0000000
   17   -0.0000000    0.0000000    0.0000000    0.0000000   -0.0000000
   18    0.0000000    0.0000000    0.0000000    0.0000000    0.0000000
   19    0.1918747   -0.1349031    0.0000000    0.0000000   -0.0273660
   20    0.0000000    0.0000000    0.0000000   -0.0201370    0.0000000
   21    0.0000000    0.0000000   -0.0201370    0.0000000    0.0000000
   22    0.0000000    0.0000000    0.0000000    0.0000000    0.0000000
   23    0.0000000    0.0000000    0.0000000    0.0000000    0.0000000
   24    0.0060433    0.0159144    0.0000000    0.0000000    0.0426716
   25    0.0000000    0.0000000    0.0000000   -0.0127947    0.0000000
   26    0.0000000    0.0000000   -0.0127947    0.0000000    0.0000000
   27    0.0000000    0.0000000    0.0000000    0.0000000   -0.0000000
   28    0.0000000    0.0000000    0.0000000    0.0000000    0.0000000
   29    0.0000000    0.0000000    0.0000000   -0.0000000    0.0000000
   30    0.0000000    0.0000000   -0.0000000    0.0000000    0.0000000
   31   -1.5452484   -1.0281861    0.0000000    0.0000000   -0.5304701
   32    1.0002488   -1.3140021    0.0000000    0.0000000    1.0556049
   33    0.0000000    0.0000000    0.0000000   -1.3426573    0.0000000
   34    0.0000000    0.0000000   -1.3426573    0.0000000    0.0000000
   35   -0.3139031   -0.0945914    0.0000000    0.0000000   -0.1401671
   36    0.0000000    0.0000000    0.0000000   -0.2967801    0.0000000
   37    0.0000000    0.0000000   -0.2967801    0.0000000    0.0000000
   38    0.0000000   -0.0000000    0.0000000    0.0000000   -0.0000000
   39    0.0000000    0.0000000    0.0000000    0.0000000    0.0000000
   40    0.0016438   -0.0625130    0.0000000    0.0000000   -0.1080134
   41    0.0000000    0.0000000    0.0000000   -0.0265542    0.0000000
   42    0.0000000    0.0000000   -0.0265542    0.0000000    0.0000000
   43   -0.0000000   -0.0000000    0.0000000    0.0000000    0.0000000
   44    0.0000000    0.0000000    0.0000000    0.0000000    0.0000000
   45    0.0000000    0.0000000    0.0000000    0.0000000    0.0000000
   46    0.0000000    0.0000000    0.0000000    0.0000000    0.0000000
   47   -0.0176082    0.0178147    0.0000000    0.0000000    0.0293999
   48   -0.0190737   -0.0245416    0.0000000    0.0000000    0.0246737
   49   -0.2523287    0.6677374    0.0000000    0.0000000   -0.1442167
   50    0.0002543   -0.0008208    0.0000000    0.0000000   -0.0038285
   51    0.0000000    0.0000000    0.0000000    0.0008709    0.0000000
   52    0.0000000    0.0000000    0.0008709    0.0000000    0.0000000
   53   -0.0030246    0.0066168    0.0000000    0.0000000    0.0361896
   54    0.0000000    0.0000000    0.0000000    0.0061252    0.0000000
   55    0.0000000    0.0000000    0.0061252    0.0000000    0.0000000
   56   -0.0003720   -0.0007242    0.0000000    0.0000000    0.0014172
   57    0.0000000    0.0000000    0.0000000    0.0012692    0.0000000
   58    0.0000000    0.0000000    0.0012692    0.0000000    0.0000000
   59    0.0000000   -0.0000000    0.0000000    0.0000000    0.0000000
   60    0.0000000    0.0000000    0.0000000    0.0000000    0.0000000
   61    2.8581988    2.0761310    0.0000000    0.0000000    6.2783457
   62    0.0175987   -0.1754623    0.0000000    0.0000000    0.1556893
   63    0.0000000    0.0000000    0.0000000    0.1405559    0.0000000
   64    0.0000000    0.0000000    0.1405559    0.0000000    0.0000000
   65    0.0039572    0.0114606    0.0000000    0.0000000   -0.0231547
   66    0.0000000    0.0000000    0.0000000   -0.0239950    0.0000000
   67    0.0000000    0.0000000   -0.0239950    0.0000000    0.0000000
   68   -0.0000000   -0.0000000    0.0000000    0.0000000   -0.0000000
   69    0.0000000    0.0000000    0.0000000    0.0000000    0.0000000

 Ene     0.0235308    0.0261451    0.0517359    0.0517359    0.0766227
 Sym            A1           A1           B2           B1           A1
 Occ             0            0            0            0            0


                11           12           13           14           15

    1    0.0051282    0.0000000    0.0000000    0.0000000    0.0000000
    2   -0.0652597   -0.0000000    0.0000000    0.0000000    0.0000000
    3   -0.4628736   -0.0000000    0.0000000    0.0000000    0.0000000
    4   -7.2961531   -0.0000000    0.0000000    0.0000000    0.0000000
    5   -0.0533969    0.0000000    0.0000000    0.0000000    0.0000000
    6    0.0000000    0.0000000    0.0000000    0.0684744    0.0000000
    7    0.0000000    0.0000000    0.0000000    0.0000000    0.0684744
    8   -1.1055501   -0.0000000    0.0000000    0.0000000    0.0000000
    9    0.0000000    0.0000000    0.0000000    0.0827385    0.0000000
   10    0.0000000    0.0000000    0.0000000    0.0000000    0.0827385
   11   -3.0277161   -0.0000000    0.0000000    0.0000000    0.0000000
   12    0.0000000    0.0000000    0.0000000    0.3448801    0.0000000
   13    0.0000000    0.0000000    0.0000000    0.0000000    0.3448801
   14   -0.1037435   -0.0000000    0.0000000    0.0000000    0.0000000
   15    0.0000000    0.0000000    0.0000000    0.1394086    0.0000000
   16    0.0000000    0.0000000    0.0000000    0.0000000    0.1394086
   17   -0.0000000    0.1188869    0.0000000    0.0000000    0.0000000
   18    0.0000000    0.0000000    0.1188869    0.0000000    0.0000000
   19    0.1141848    0.0000000    0.0000000    0.0000000    0.0000000
   20    0.0000000    0.0000000    0.0000000   -0.4545642    0.0000000
   21    0.0000000    0.0000000    0.0000000    0.0000000   -0.4545642
   22    0.0000000   -0.4849055    0.0000000    0.0000000    0.0000000
   23    0.0000000    0.0000000   -0.4849055    0.0000000    0.0000000
   24    0.0199525   -0.0000000    0.0000000    0.0000000    0.0000000
   25    0.0000000    0.0000000    0.0000000    0.0379355    0.0000000
   26    0.0000000    0.0000000    0.0000000    0.0000000    0.0379355
   27   -0.0000000    0.0170107    0.0000000    0.0000000    0.0000000
   28    0.0000000    0.0000000    0.0170107    0.0000000    0.0000000
   29    0.0000000    0.0000000    0.0000000   -0.0000000    0.0000000
   30    0.0000000    0.0000000    0.0000000    0.0000000    0.0000000
   31   -1.4611338   -0.0000000    0.0000000    0.0000000    0.0000000
   32   -0.2299513    0.0000000    0.0000000    0.0000000    0.0000000
   33    0.0000000    0.0000000    0.0000000   -0.1772688    0.0000000
   34    0.0000000    0.0000000    0.0000000    0.0000000   -0.1772688
   35   -1.5467576   -0.0000000    0.0000000    0.0000000    0.0000000
   36    0.0000000    0.0000000    0.0000000    1.2684961    0.0000000
   37    0.0000000    0.0000000    0.0000000    0.0000000    1.2684961
   38   -0.0000000    1.3037275    0.0000000    0.0000000    0.0000000
   39    0.0000000    0.0000000    1.3037275    0.0000000    0.0000000
   40   -0.1019187    0.0000000    0.0000000    0.0000000    0.0000000
   41    0.0000000    0.0000000    0.0000000   -0.0952018    0.0000000
   42    0.0000000    0.0000000    0.0000000    0.0000000   -0.0952018
   43    0.0000000   -0.0903483    0.0000000    0.0000000    0.0000000
   44    0.0000000    0.0000000   -0.0903483    0.0000000    0.0000000
   45    0.0000000    0.0000000    0.0000000    0.0000000    0.0000000
   46    0.0000000    0.0000000    0.0000000    0.0000000   -0.0000000
   47   -0.0261034   -0.0000000    0.0000000    0.0000000    0.0000000
   48   -0.1360781   -0.0000000    0.0000000    0.0000000    0.0000000
   49    1.0095777   -0.0000000    0.0000000    0.0000000    0.0000000
   50    0.0025622   -0.0000000    0.0000000    0.0000000    0.0000000
   51    0.0000000    0.0000000    0.0000000   -0.0003930    0.0000000
   52    0.0000000    0.0000000    0.0000000    0.0000000   -0.0003930
   53   -0.0091046   -0.0000000    0.0000000    0.0000000    0.0000000
   54    0.0000000    0.0000000    0.0000000    0.0149857    0.0000000
   55    0.0000000    0.0000000    0.0000000    0.0000000    0.0149857
   56   -0.0008029   -0.0000000    0.0000000    0.0000000    0.0000000
   57    0.0000000    0.0000000    0.0000000    0.0004543    0.0000000
   58    0.0000000    0.0000000    0.0000000    0.0000000    0.0004543
   59    0.0000000   -0.0010458    0.0000000    0.0000000    0.0000000
   60    0.0000000    0.0000000   -0.0010458    0.0000000    0.0000000
   61    9.5008868    0.0000000    0.0000000    0.0000000    0.0000000
   62   -0.2403386   -0.0000000    0.0000000    0.0000000    0.0000000
   63    0.0000000    0.0000000    0.0000000   -0.0861757    0.0000000
   64    0.0000000    0.0000000    0.0000000    0.0000000   -0.0861757
   65    0.0198728    0.0000000    0.0000000    0.0000000    0.0000000
   66    0.0000000    0.0000000    0.0000000    0.0292071    0.0000000
   67    0.0000000    0.0000000    0.0000000    0.0000000    0.0292071
   68   -0.0000000    0.0093695    0.0000000    0.0000000    0.0000000
   69    0.0000000    0.0000000    0.0093695    0.0000000    0.0000000

 Ene     0.1002304    0.1044779    0.1044779    0.1124357    0.1124357
 Sym            A1           A1           A2           B1           B2
 Occ             0            0            0            0            0


                16           17           18           19           20

    1    0.0053277    0.0000000    0.0000000    0.0688097    0.0602148
    2    0.0478180    0.0000000    0.0000000    0.3346058    0.1669936
    3   -1.3116120    0.0000000    0.0000000    3.3454306    1.4194345
    4   -0.6289013    0.0000000    0.0000000  -11.8923258    4.4410468
    5   -0.1846172    0.0000000    0.0000000    0.0889327    0.0938539
    6    0.0000000    0.1317237    0.0000000    0.0000000    0.0000000
    7    0.0000000    0.0000000    0.1317237    0.0000000    0.0000000
    8   -2.5140727    0.0000000    0.0000000   -1.6439188    2.7563221
    9    0.0000000    1.9059997    0.0000000    0.0000000    0.0000000
   10    0.0000000    0.0000000    1.9059997    0.0000000    0.0000000
   11    2.2149528    0.0000000    0.0000000   -4.2052968    0.8687478
   12    0.0000000   -2.1491545    0.0000000    0.0000000    0.0000000
   13    0.0000000    0.0000000   -2.1491545    0.0000000    0.0000000
   14    0.1208020    0.0000000    0.0000000    0.1323821    0.2584152
   15    0.0000000    0.0478718    0.0000000    0.0000000    0.0000000
   16    0.0000000    0.0000000    0.0478718    0.0000000    0.0000000
   17    0.0000000    0.0000000    0.0000000   -0.0000000   -0.0000000
   18    0.0000000    0.0000000    0.0000000    0.0000000    0.0000000
   19   -0.8941701    0.0000000    0.0000000   -0.6078877   -0.7469653
   20    0.0000000    0.0106410    0.0000000    0.0000000    0.0000000
   21    0.0000000    0.0000000    0.0106410    0.0000000    0.0000000
   22   -0.0000000    0.0000000    0.0000000    0.0000000    0.0000000
   23    0.0000000    0.0000000    0.0000000    0.0000000    0.0000000
   24    0.0614517    0.0000000    0.0000000    0.0430509    0.1076974
   25    0.0000000    0.0294167    0.0000000    0.0000000    0.0000000
   26    0.0000000    0.0000000    0.0294167    0.0000000    0.0000000
   27   -0.0000000    0.0000000    0.0000000   -0.0000000    0.0000000
   28    0.0000000    0.0000000    0.0000000    0.0000000    0.0000000
   29    0.0000000   -0.0000000    0.0000000    0.0000000    0.0000000
   30    0.0000000    0.0000000    0.0000000    0.0000000    0.0000000
   31    0.1491249    0.0000000    0.0000000   -0.3836905    0.4706288
   32   -0.9666362    0.0000000    0.0000000    0.3495969    0.2500406
   33    0.0000000    0.9560184    0.0000000    0.0000000    0.0000000
   34    0.0000000    0.0000000    0.9560184    0.0000000    0.0000000
   35    0.9131939    0.0000000    0.0000000   -1.5756234    1.6240433
   36    0.0000000    0.0998958    0.0000000    0.0000000    0.0000000
   37    0.0000000    0.0000000    0.0998958    0.0000000    0.0000000
   38    0.0000000    0.0000000    0.0000000    0.0000000   -0.0000000
   39    0.0000000    0.0000000    0.0000000    0.0000000    0.0000000
   40   -0.2730477    0.0000000    0.0000000   -0.3309859   -0.0623273
   41    0.0000000    0.1419328    0.0000000    0.0000000    0.0000000
   42    0.0000000    0.0000000    0.1419328    0.0000000    0.0000000
   43   -0.0000000    0.0000000    0.0000000    0.0000000   -0.0000000
   44    0.0000000    0.0000000    0.0000000    0.0000000    0.0000000
   45    0.0000000    0.0000000    0.0000000    0.0000000    0.0000000
   46    0.0000000    0.0000000   -0.0000000    0.0000000    0.0000000
   47   -0.0059690    0.0000000    0.0000000    0.0189171   -0.0942596
   48   -0.2016707    0.0000000    0.0000000   -0.1556253   -0.0822049
   49    2.2534735    0.0000000    0.0000000    1.6156759   -2.7404225
   50   -0.0039170    0.0000000    0.0000000   -0.0042268   -0.0174740
   51    0.0000000    0.0032085    0.0000000    0.0000000    0.0000000
   52    0.0000000    0.0000000    0.0032085    0.0000000    0.0000000
   53    0.0635861    0.0000000    0.0000000    0.0170880    0.1385776
   54    0.0000000    0.0006239    0.0000000    0.0000000    0.0000000
   55    0.0000000    0.0000000    0.0006239    0.0000000    0.0000000
   56   -0.0032118    0.0000000    0.0000000    0.0108266   -0.0046675
   57    0.0000000   -0.0061918    0.0000000    0.0000000    0.0000000
   58    0.0000000    0.0000000   -0.0061918    0.0000000    0.0000000
   59    0.0000000    0.0000000    0.0000000    0.0000000   -0.0000000
   60    0.0000000    0.0000000    0.0000000    0.0000000    0.0000000
   61    0.2807095    0.0000000    0.0000000    9.7853564   -4.5619413
   62   -0.6069357    0.0000000    0.0000000    0.6970737    0.2830349
   63    0.0000000   -0.3972207    0.0000000    0.0000000    0.0000000
   64    0.0000000    0.0000000   -0.3972207    0.0000000    0.0000000
   65    0.0197834    0.0000000    0.0000000   -0.1362624   -0.0344975
   66    0.0000000    0.0704735    0.0000000    0.0000000    0.0000000
   67    0.0000000    0.0000000    0.0704735    0.0000000    0.0000000
   68   -0.0000000    0.0000000    0.0000000   -0.0000000    0.0000000
   69    0.0000000    0.0000000    0.0000000    0.0000000    0.0000000

 Ene     0.1176060    0.1509608    0.1509608    0.2115234    0.2684629
 Sym            A1           B1           B2           A1           A1
 Occ             0            0            0            0            0


                21           22           23           24           25

    1    0.0000000    0.0000000    0.0000000    0.0000000    0.0853514
    2    0.0000000    0.0000000    0.0000000    0.0000000    0.1928156
    3    0.0000000    0.0000000    0.0000000    0.0000000    5.3016101
    4    0.0000000    0.0000000    0.0000000   -0.0000000   -0.2433680
    5    0.0000000    0.0000000    0.0000000   -0.0000000   -0.0321536
    6    0.0000000    0.0632272    0.0000000    0.0000000    0.0000000
    7    0.0632272    0.0000000    0.0000000    0.0000000    0.0000000
    8    0.0000000    0.0000000    0.0000000    0.0000000    5.0514093
    9    0.0000000   -0.3299983    0.0000000    0.0000000    0.0000000
   10   -0.3299983    0.0000000    0.0000000    0.0000000    0.0000000
   11    0.0000000    0.0000000    0.0000000   -0.0000000   -2.2167380
   12    0.0000000   -0.0471250    0.0000000    0.0000000    0.0000000
   13   -0.0471250    0.0000000    0.0000000    0.0000000    0.0000000
   14    0.0000000    0.0000000    0.0000000   -0.0000000   -0.0542465
   15    0.0000000   -0.1489311    0.0000000    0.0000000    0.0000000
   16   -0.1489311    0.0000000    0.0000000    0.0000000    0.0000000
   17    0.0000000    0.0000000    0.0000000    0.2296793   -0.0000000
   18    0.0000000    0.0000000    0.2296793    0.0000000    0.0000000
   19    0.0000000    0.0000000    0.0000000    0.0000000    2.4554971
   20    0.0000000    0.8995972    0.0000000    0.0000000    0.0000000
   21    0.8995972    0.0000000    0.0000000    0.0000000    0.0000000
   22    0.0000000    0.0000000    0.0000000   -1.4628633    0.0000000
   23    0.0000000    0.0000000   -1.4628633    0.0000000    0.0000000
   24    0.0000000    0.0000000    0.0000000    0.0000000   -0.0254582
   25    0.0000000    0.1995531    0.0000000    0.0000000    0.0000000
   26    0.1995531    0.0000000    0.0000000    0.0000000    0.0000000
   27    0.0000000    0.0000000    0.0000000   -0.1208545    0.0000000
   28    0.0000000    0.0000000   -0.1208545    0.0000000    0.0000000
   29    0.0000000    0.0000000    0.0000000    0.0000000    0.0000000
   30   -0.0000000    0.0000000    0.0000000    0.0000000    0.0000000
   31    0.0000000    0.0000000    0.0000000   -0.0000000   -0.1141805
   32    0.0000000    0.0000000    0.0000000    0.0000000    0.6924971
   33    0.0000000    0.0270427    0.0000000    0.0000000    0.0000000
   34    0.0270427    0.0000000    0.0000000    0.0000000    0.0000000
   35    0.0000000    0.0000000    0.0000000   -0.0000000   -0.7110137
   36    0.0000000   -0.8669961    0.0000000    0.0000000    0.0000000
   37   -0.8669961    0.0000000    0.0000000    0.0000000    0.0000000
   38    0.0000000    0.0000000    0.0000000    0.9291837   -0.0000000
   39    0.0000000    0.0000000    0.9291837    0.0000000    0.0000000
   40    0.0000000    0.0000000    0.0000000   -0.0000000    0.2190017
   41    0.0000000   -1.0649721    0.0000000    0.0000000    0.0000000
   42   -1.0649721    0.0000000    0.0000000    0.0000000    0.0000000
   43    0.0000000    0.0000000    0.0000000    0.7099598   -0.0000000
   44    0.0000000    0.0000000    0.7099598    0.0000000    0.0000000
   45    0.0000000   -0.0000000    0.0000000    0.0000000    0.0000000
   46    0.0000000    0.0000000    0.0000000    0.0000000    0.0000000
   47    0.0000000    0.0000000    0.0000000   -0.0000000   -0.0487036
   48    0.0000000    0.0000000    0.0000000    0.0000000    0.3322447
   49    0.0000000    0.0000000    0.0000000   -0.0000000   -6.7121039
   50    0.0000000    0.0000000    0.0000000   -0.0000000    0.0073927
   51    0.0000000    0.0084982    0.0000000    0.0000000    0.0000000
   52    0.0084982    0.0000000    0.0000000    0.0000000    0.0000000
   53    0.0000000    0.0000000    0.0000000   -0.0000000   -0.0290932
   54    0.0000000   -0.0543538    0.0000000    0.0000000    0.0000000
   55   -0.0543538    0.0000000    0.0000000    0.0000000    0.0000000
   56    0.0000000    0.0000000    0.0000000   -0.0000000    0.0046485
   57    0.0000000   -0.0014270    0.0000000    0.0000000    0.0000000
   58   -0.0014270    0.0000000    0.0000000    0.0000000    0.0000000
   59    0.0000000    0.0000000    0.0000000    0.0034160   -0.0000000
   60    0.0000000    0.0000000    0.0034160    0.0000000    0.0000000
   61    0.0000000    0.0000000    0.0000000    0.0000000    0.4114820
   62    0.0000000    0.0000000    0.0000000    0.0000000    1.7923637
   63    0.0000000    0.6385125    0.0000000    0.0000000    0.0000000
   64    0.6385125    0.0000000    0.0000000    0.0000000    0.0000000
   65    0.0000000    0.0000000    0.0000000    0.0000000   -0.0717040
   66    0.0000000    0.0433858    0.0000000    0.0000000    0.0000000
   67    0.0433858    0.0000000    0.0000000    0.0000000    0.0000000
   68    0.0000000    0.0000000    0.0000000   -0.0237820    0.0000000
   69    0.0000000    0.0000000   -0.0237820    0.0000000    0.0000000

 Ene     0.3041756    0.3041756    0.3055537    0.3055537    0.3203699
 Sym            B2           B1           A2           A1           A1
 Occ             0            0            0            0            0


                26           27           28           29           30

    1    0.0000000    0.0000000    0.0386880    0.0000000    0.0000000
    2    0.0000000    0.0000000    0.1125905    0.0000000    0.0000000
    3    0.0000000    0.0000000   -1.0396390    0.0000000    0.0000000
    4    0.0000000    0.0000000   -6.6418014    0.0000000    0.0000000
    5    0.0000000    0.0000000   -0.0141993    0.0000000    0.0000000
    6    0.0000000    0.0000000    0.0000000    0.0000000    0.0412100
    7    0.0000000   -0.0000000    0.0000000    0.0412100    0.0000000
    8    0.0000000    0.0000000   -2.7571664    0.0000000    0.0000000
    9   -0.0000000    0.0000000    0.0000000    0.0000000    0.1217940
   10    0.0000000    0.0000000    0.0000000    0.1217940    0.0000000
   11    0.0000000    0.0000000   -2.0197804    0.0000000    0.0000000
   12    0.0000000    0.0000000    0.0000000    0.0000000   -0.0358128
   13    0.0000000   -0.0000000    0.0000000   -0.0358128    0.0000000
   14    0.0000000    0.0000000   -0.0420743    0.0000000    0.0000000
   15    0.0000000    0.0000000    0.0000000    0.0000000   -0.2816128
   16    0.0000000   -0.0000000    0.0000000   -0.2816128    0.0000000
   17    0.0000000    0.0000000   -0.0000000    0.0000000    0.0000000
   18    0.0000000    0.0000000    0.0000000    0.0000000    0.0000000
   19    0.0000000    0.0000000   -0.1961540    0.0000000    0.0000000
   20   -0.0000000    0.0000000    0.0000000    0.0000000    1.4076022
   21    0.0000000    0.0000000    0.0000000    1.4076022    0.0000000
   22    0.0000000    0.0000000    0.0000000    0.0000000    0.0000000
   23    0.0000000    0.0000000    0.0000000    0.0000000    0.0000000
   24    0.0000000    0.0000000    0.3042972    0.0000000    0.0000000
   25   -0.0000000    0.0000000    0.0000000    0.0000000   -0.2940066
   26    0.0000000    0.0000000    0.0000000   -0.2940066    0.0000000
   27    0.0000000    0.0000000   -0.0000000    0.0000000    0.0000000
   28    0.0000000    0.0000000    0.0000000    0.0000000    0.0000000
   29    0.2651650    0.0000000    0.0000000    0.0000000    0.0000000
   30    0.0000000    0.2651650    0.0000000   -0.0000000    0.0000000
   31    0.0000000    0.0000000   -0.5676195    0.0000000    0.0000000
   32    0.0000000    0.0000000   -0.0231761    0.0000000    0.0000000
   33   -0.0000000    0.0000000    0.0000000    0.0000000    0.0083630
   34    0.0000000    0.0000000    0.0000000    0.0083630    0.0000000
   35    0.0000000    0.0000000   -1.3969135    0.0000000    0.0000000
   36    0.0000000    0.0000000    0.0000000    0.0000000   -0.6987189
   37    0.0000000   -0.0000000    0.0000000   -0.6987189    0.0000000
   38    0.0000000    0.0000000   -0.0000000    0.0000000    0.0000000
   39    0.0000000    0.0000000    0.0000000    0.0000000    0.0000000
   40    0.0000000    0.0000000   -1.4555865    0.0000000    0.0000000
   41   -0.0000000    0.0000000    0.0000000    0.0000000    0.9549463
   42    0.0000000    0.0000000    0.0000000    0.9549463    0.0000000
   43    0.0000000    0.0000000    0.0000000    0.0000000    0.0000000
   44    0.0000000    0.0000000    0.0000000    0.0000000    0.0000000
   45   -1.1674739    0.0000000    0.0000000    0.0000000   -0.0000000
   46    0.0000000   -1.1674739    0.0000000    0.0000000    0.0000000
   47    0.0000000    0.0000000    0.0181664    0.0000000    0.0000000
   48    0.0000000    0.0000000   -0.2439685    0.0000000    0.0000000
   49    0.0000000    0.0000000    3.6579676    0.0000000    0.0000000
   50    0.0000000    0.0000000   -0.0099659    0.0000000    0.0000000
   51    0.0000000    0.0000000    0.0000000    0.0000000    0.0068532
   52    0.0000000   -0.0000000    0.0000000    0.0068532    0.0000000
   53    0.0000000    0.0000000    0.0662892    0.0000000    0.0000000
   54   -0.0000000    0.0000000    0.0000000    0.0000000    0.0521739
   55    0.0000000    0.0000000    0.0000000    0.0521739    0.0000000
   56    0.0000000    0.0000000   -0.0089682    0.0000000    0.0000000
   57    0.0000000    0.0000000    0.0000000    0.0000000    0.0000854
   58    0.0000000   -0.0000000    0.0000000    0.0000854    0.0000000
   59    0.0000000    0.0000000    0.0000000    0.0000000    0.0000000
   60    0.0000000    0.0000000    0.0000000    0.0000000    0.0000000
   61    0.0000000    0.0000000    6.4094441    0.0000000    0.0000000
   62    0.0000000    0.0000000   -0.6052267    0.0000000    0.0000000
   63    0.0000000    0.0000000    0.0000000    0.0000000   -0.1557303
   64    0.0000000   -0.0000000    0.0000000   -0.1557303    0.0000000
   65    0.0000000    0.0000000    0.0911924    0.0000000    0.0000000
   66   -0.0000000    0.0000000    0.0000000    0.0000000   -0.1390527
   67    0.0000000    0.0000000    0.0000000   -0.1390527    0.0000000
   68    0.0000000    0.0000000   -0.0000000    0.0000000    0.0000000
   69    0.0000000    0.0000000    0.0000000    0.0000000    0.0000000

 Ene     0.3223075    0.3223075    0.3347483    0.3388020    0.3388020
 Sym            B1           B2           A1           B2           B1
 Occ             0            0            0            0            0


                31           32           33           34           35

    1    0.0000000    0.0000000    0.0000000    0.0000000    0.2448744
    2    0.0000000    0.0000000    0.0000000    0.0000000    0.5951507
    3   -0.0000000    0.0000000    0.0000000    0.0000000    0.5031874
    4   -0.0000000    0.0000000    0.0000000    0.0000000    6.4999926
    5   -0.0000000    0.0000000    0.0000000    0.0000000   -0.2261396
    6    0.0000000    0.0000000    0.5830093    0.0000000    0.0000000
    7    0.0000000    0.0000000    0.0000000    0.5830093    0.0000000
    8   -0.0000000    0.0000000    0.0000000    0.0000000    5.1700935
    9    0.0000000    0.0000000   -3.9305745    0.0000000    0.0000000
   10    0.0000000    0.0000000    0.0000000   -3.9305745    0.0000000
   11   -0.0000000    0.0000000    0.0000000    0.0000000    1.1915401
   12    0.0000000    0.0000000    1.4693483    0.0000000    0.0000000
   13    0.0000000    0.0000000    0.0000000    1.4693483    0.0000000
   14   -0.0000000    0.0000000    0.0000000    0.0000000   -0.1941496
   15    0.0000000    0.0000000   -0.2788883    0.0000000    0.0000000
   16    0.0000000    0.0000000    0.0000000   -0.2788883    0.0000000
   17    0.1310942    0.0000000    0.0000000    0.0000000    0.0000000
   18    0.0000000    0.1310942    0.0000000    0.0000000    0.0000000
   19   -0.0000000    0.0000000    0.0000000    0.0000000    2.8783200
   20    0.0000000    0.0000000   -2.3763151    0.0000000    0.0000000
   21    0.0000000    0.0000000    0.0000000   -2.3763151    0.0000000
   22   -1.1198355    0.0000000    0.0000000    0.0000000    0.0000000
   23    0.0000000   -1.1198355    0.0000000    0.0000000    0.0000000
   24    0.0000000    0.0000000    0.0000000    0.0000000   -0.0892666
   25    0.0000000    0.0000000   -0.1514805    0.0000000    0.0000000
   26    0.0000000    0.0000000    0.0000000   -0.1514805    0.0000000
   27    0.2070917    0.0000000    0.0000000    0.0000000    0.0000000
   28    0.0000000    0.2070917    0.0000000    0.0000000    0.0000000
   29    0.0000000    0.0000000   -0.0000000    0.0000000    0.0000000
   30    0.0000000    0.0000000    0.0000000    0.0000000    0.0000000
   31   -0.0000000    0.0000000    0.0000000    0.0000000   -0.0627922
   32   -0.0000000    0.0000000    0.0000000    0.0000000   -0.0244334
   33    0.0000000    0.0000000   -0.5295338    0.0000000    0.0000000
   34    0.0000000    0.0000000    0.0000000   -0.5295338    0.0000000
   35   -0.0000000    0.0000000    0.0000000    0.0000000    1.0332202
   36    0.0000000    0.0000000   -0.0217835    0.0000000    0.0000000
   37    0.0000000    0.0000000    0.0000000   -0.0217835    0.0000000
   38    0.6116036    0.0000000    0.0000000    0.0000000   -0.0000000
   39    0.0000000    0.6116036    0.0000000    0.0000000    0.0000000
   40   -0.0000000    0.0000000    0.0000000    0.0000000    1.8483032
   41    0.0000000    0.0000000   -1.2793032    0.0000000    0.0000000
   42    0.0000000    0.0000000    0.0000000   -1.2793032    0.0000000
   43   -0.9367346    0.0000000    0.0000000    0.0000000    0.0000000
   44    0.0000000   -0.9367346    0.0000000    0.0000000    0.0000000
   45    0.0000000    0.0000000    0.0000000    0.0000000    0.0000000
   46    0.0000000    0.0000000    0.0000000   -0.0000000    0.0000000
   47    0.0000000    0.0000000    0.0000000    0.0000000    0.0014975
   48   -0.0000000    0.0000000    0.0000000    0.0000000    0.1837810
   49    0.0000000    0.0000000    0.0000000    0.0000000   -6.8554134
   50   -0.0000000    0.0000000    0.0000000    0.0000000   -0.0297988
   51    0.0000000    0.0000000    0.0109440    0.0000000    0.0000000
   52    0.0000000    0.0000000    0.0000000    0.0109440    0.0000000
   53    0.0000000    0.0000000    0.0000000    0.0000000    0.1294089
   54    0.0000000    0.0000000   -0.0457369    0.0000000    0.0000000
   55    0.0000000    0.0000000    0.0000000   -0.0457369    0.0000000
   56   -0.0000000    0.0000000    0.0000000    0.0000000   -0.0096740
   57    0.0000000    0.0000000    0.0248660    0.0000000    0.0000000
   58    0.0000000    0.0000000    0.0000000    0.0248660    0.0000000
   59   -0.0108221    0.0000000    0.0000000    0.0000000   -0.0000000
   60    0.0000000   -0.0108221    0.0000000    0.0000000    0.0000000
   61    0.0000000    0.0000000    0.0000000    0.0000000   -3.7574562
   62   -0.0000000    0.0000000    0.0000000    0.0000000   -2.2294916
   63    0.0000000    0.0000000    4.0216619    0.0000000    0.0000000
   64    0.0000000    0.0000000    0.0000000    4.0216619    0.0000000
   65    0.0000000    0.0000000    0.0000000    0.0000000    0.1361769
   66    0.0000000    0.0000000   -0.3716954    0.0000000    0.0000000
   67    0.0000000    0.0000000    0.0000000   -0.3716954    0.0000000
   68    0.0753048    0.0000000    0.0000000    0.0000000   -0.0000000
   69    0.0000000    0.0753048    0.0000000    0.0000000    0.0000000

 Ene     0.3421555    0.3421555    0.4250365    0.4250365    0.4634643
 Sym            A1           A2           B1           B2           A1
 Occ             0            0            0            0            0


                36           37           38           39           40

    1    0.0000000    0.0000000    0.0762743    0.0000000    0.0000000
    2    0.0000000    0.0000000   -0.0011413    0.0000000    0.0000000
    3    0.0000000    0.0000000   -2.6552155   -0.0000000    0.0000000
    4    0.0000000    0.0000000    1.9754062   -0.0000000    0.0000000
    5    0.0000000    0.0000000   -0.8701738   -0.0000000    0.0000000
    6    1.1628642    0.0000000    0.0000000    0.0000000    0.0000000
    7    0.0000000    1.1628642    0.0000000    0.0000000    0.0000000
    8    0.0000000    0.0000000   -0.7159011   -0.0000000    0.0000000
    9    1.3390933    0.0000000    0.0000000    0.0000000    0.0000000
   10    0.0000000    1.3390933    0.0000000    0.0000000    0.0000000
   11    0.0000000    0.0000000    1.0276471   -0.0000000    0.0000000
   12    0.2848311    0.0000000    0.0000000    0.0000000    0.0000000
   13    0.0000000    0.2848311    0.0000000    0.0000000    0.0000000
   14    0.0000000    0.0000000    1.1794604   -0.0000000    0.0000000
   15   -0.2690832    0.0000000    0.0000000    0.0000000    0.0000000
   16    0.0000000   -0.2690832    0.0000000    0.0000000    0.0000000
   17    0.0000000    0.0000000    0.0000000    1.6355312    0.0000000
   18    0.0000000    0.0000000    0.0000000    0.0000000    1.6355312
   19    0.0000000    0.0000000   -2.0005047    0.0000000    0.0000000
   20    2.4200698    0.0000000    0.0000000    0.0000000    0.0000000
   21    0.0000000    2.4200698    0.0000000    0.0000000    0.0000000
   22    0.0000000    0.0000000   -0.0000000   -1.6952817    0.0000000
   23    0.0000000    0.0000000    0.0000000    0.0000000   -1.6952817
   24    0.0000000    0.0000000    0.5094129    0.0000000    0.0000000
   25   -0.0977304    0.0000000    0.0000000    0.0000000    0.0000000
   26    0.0000000   -0.0977304    0.0000000    0.0000000    0.0000000
   27    0.0000000    0.0000000   -0.0000000   -0.3145136    0.0000000
   28    0.0000000    0.0000000    0.0000000    0.0000000   -0.3145136
   29    0.0000000    0.0000000    0.0000000    0.0000000    0.0000000
   30    0.0000000   -0.0000000    0.0000000    0.0000000    0.0000000
   31    0.0000000    0.0000000    0.1424497   -0.0000000    0.0000000
   32    0.0000000    0.0000000   -0.1391398    0.0000000    0.0000000
   33   -0.1593115    0.0000000    0.0000000    0.0000000    0.0000000
   34    0.0000000   -0.1593115    0.0000000    0.0000000    0.0000000
   35    0.0000000    0.0000000    1.0566431   -0.0000000    0.0000000
   36   -0.0038760    0.0000000    0.0000000    0.0000000    0.0000000
   37    0.0000000   -0.0038760    0.0000000    0.0000000    0.0000000
   38    0.0000000    0.0000000    0.0000000    0.6848942    0.0000000
   39    0.0000000    0.0000000    0.0000000    0.0000000    0.6848942
   40    0.0000000    0.0000000   -0.3633726   -0.0000000    0.0000000
   41    1.3187546    0.0000000    0.0000000    0.0000000    0.0000000
   42    0.0000000    1.3187546    0.0000000    0.0000000    0.0000000
   43    0.0000000    0.0000000    0.0000000    0.1321311    0.0000000
   44    0.0000000    0.0000000    0.0000000    0.0000000    0.1321311
   45   -0.0000000    0.0000000    0.0000000    0.0000000    0.0000000
   46    0.0000000    0.0000000    0.0000000    0.0000000    0.0000000
   47    0.0000000    0.0000000    0.1456999    0.0000000    0.0000000
   48    0.0000000    0.0000000   -0.0755516   -0.0000000    0.0000000
   49    0.0000000    0.0000000    2.1271596    0.0000000    0.0000000
   50    0.0000000    0.0000000   -0.0390933    0.0000000    0.0000000
   51   -0.0330996    0.0000000    0.0000000    0.0000000    0.0000000
   52    0.0000000   -0.0330996    0.0000000    0.0000000    0.0000000
   53    0.0000000    0.0000000    0.5082499    0.0000000    0.0000000
   54    0.2075037    0.0000000    0.0000000    0.0000000    0.0000000
   55    0.0000000    0.2075037    0.0000000    0.0000000    0.0000000
   56    0.0000000    0.0000000   -0.0204479   -0.0000000    0.0000000
   57   -0.0023758    0.0000000    0.0000000    0.0000000    0.0000000
   58    0.0000000   -0.0023758    0.0000000    0.0000000    0.0000000
   59    0.0000000    0.0000000   -0.0000000   -0.0059975    0.0000000
   60    0.0000000    0.0000000    0.0000000    0.0000000   -0.0059975
   61    0.0000000    0.0000000   -1.6822928    0.0000000    0.0000000
   62    0.0000000    0.0000000   -1.2035638   -0.0000000    0.0000000
   63   -3.7168553    0.0000000    0.0000000    0.0000000    0.0000000
   64    0.0000000   -3.7168553    0.0000000    0.0000000    0.0000000
   65    0.0000000    0.0000000    0.0623911    0.0000000    0.0000000
   66   -0.0278895    0.0000000    0.0000000    0.0000000    0.0000000
   67    0.0000000   -0.0278895    0.0000000    0.0000000    0.0000000
   68    0.0000000    0.0000000    0.0000000    0.0990039    0.0000000
   69    0.0000000    0.0000000    0.0000000    0.0000000    0.0990039

 Ene     0.5397188    0.5397188    0.6454123    0.8118452    0.8118452
 Sym            B1           B2           A1           A1           A2
 Occ             0            0            0            0            0


                41           42           43           44           45

    1    0.0000000    0.0000000    0.0875664    0.0564477    0.0000000
    2    0.0000000    0.0000000    0.1794381    0.1796634    0.0000000
    3    0.0000000    0.0000000   -6.6971909    3.0459036    0.0000000
    4    0.0000000    0.0000000   -2.7114123    0.1221993    0.0000000
    5    0.0000000    0.0000000   -1.6907069    0.4909128    0.0000000
    6    0.1683638    0.0000000    0.0000000    0.0000000    0.6138416
    7    0.0000000    0.1683638    0.0000000    0.0000000    0.0000000
    8    0.0000000    0.0000000   -4.2197444    2.2086925    0.0000000
    9   -0.0496674    0.0000000    0.0000000    0.0000000    0.5088146
   10    0.0000000   -0.0496674    0.0000000    0.0000000    0.0000000
   11    0.0000000    0.0000000   -0.0407525   -0.7339705    0.0000000
   12    0.0711122    0.0000000    0.0000000    0.0000000   -0.0636369
   13    0.0000000    0.0711122    0.0000000    0.0000000    0.0000000
   14    0.0000000    0.0000000   -0.8770653   -0.7770419    0.0000000
   15    1.6606121    0.0000000    0.0000000    0.0000000    0.7457058
   16    0.0000000    1.6606121    0.0000000    0.0000000    0.0000000
   17    0.0000000    0.0000000   -0.0000000   -0.0000000    0.0000000
   18    0.0000000    0.0000000    0.0000000    0.0000000    0.0000000
   19    0.0000000    0.0000000   -0.4422277    1.4712278    0.0000000
   20   -1.6391774    0.0000000    0.0000000    0.0000000    0.1506190
   21    0.0000000   -1.6391774    0.0000000    0.0000000    0.0000000
   22    0.0000000    0.0000000    0.0000000    0.0000000    0.0000000
   23    0.0000000    0.0000000    0.0000000    0.0000000    0.0000000
   24    0.0000000    0.0000000    0.5641866    0.7297519    0.0000000
   25   -0.2548470    0.0000000    0.0000000    0.0000000    1.5423695
   26    0.0000000   -0.2548470    0.0000000    0.0000000    0.0000000
   27    0.0000000    0.0000000   -0.0000000    0.0000000    0.0000000
   28    0.0000000    0.0000000    0.0000000    0.0000000    0.0000000
   29   -0.0000000    0.0000000    0.0000000    0.0000000   -0.0000000
   30    0.0000000   -0.0000000    0.0000000    0.0000000    0.0000000
   31    0.0000000    0.0000000   -0.3283043   -0.1161612    0.0000000
   32    0.0000000    0.0000000   -0.3050073    0.2119786    0.0000000
   33   -0.0268255    0.0000000    0.0000000    0.0000000    0.0167268
   34    0.0000000   -0.0268255    0.0000000    0.0000000    0.0000000
   35    0.0000000    0.0000000   -0.7024414   -0.3507105    0.0000000
   36    0.7033606    0.0000000    0.0000000    0.0000000    0.1386424
   37    0.0000000    0.7033606    0.0000000    0.0000000    0.0000000
   38    0.0000000    0.0000000   -0.0000000   -0.0000000    0.0000000
   39    0.0000000    0.0000000    0.0000000    0.0000000    0.0000000
   40    0.0000000    0.0000000   -0.4869008   -0.4450073    0.0000000
   41    0.1399774    0.0000000    0.0000000    0.0000000   -0.5761573
   42    0.0000000    0.1399774    0.0000000    0.0000000    0.0000000
   43    0.0000000    0.0000000    0.0000000   -0.0000000    0.0000000
   44    0.0000000    0.0000000    0.0000000    0.0000000    0.0000000
   45    0.0000000    0.0000000    0.0000000    0.0000000    0.0000000
   46    0.0000000    0.0000000    0.0000000    0.0000000    0.0000000
   47    0.0000000    0.0000000    0.0131489    0.0434485    0.0000000
   48    0.0000000    0.0000000   -1.3923077    0.9631040    0.0000000
   49    0.0000000    0.0000000    9.2801738   -4.6219386    0.0000000
   50    0.0000000    0.0000000    0.0027945    0.0111303    0.0000000
   51   -0.0069568    0.0000000    0.0000000    0.0000000    0.0239174
   52    0.0000000   -0.0069568    0.0000000    0.0000000    0.0000000
   53    0.0000000    0.0000000    0.2169781   -0.0517973    0.0000000
   54    0.1325135    0.0000000    0.0000000    0.0000000   -0.0928462
   55    0.0000000    0.1325135    0.0000000    0.0000000    0.0000000
   56    0.0000000    0.0000000   -0.0199338   -0.0224024    0.0000000
   57    0.0011312    0.0000000    0.0000000    0.0000000   -0.0160324
   58    0.0000000    0.0011312    0.0000000    0.0000000    0.0000000
   59    0.0000000    0.0000000    0.0000000   -0.0000000    0.0000000
   60    0.0000000    0.0000000    0.0000000    0.0000000    0.0000000
   61    0.0000000    0.0000000    3.0512520    0.2014505    0.0000000
   62    0.0000000    0.0000000   -3.0519246    1.1869283    0.0000000
   63   -0.1842731    0.0000000    0.0000000    0.0000000   -1.1355394
   64    0.0000000   -0.1842731    0.0000000    0.0000000    0.0000000
   65    0.0000000    0.0000000    0.2592269    0.3888344    0.0000000
   66    0.0683091    0.0000000    0.0000000    0.0000000    0.7168135
   67    0.0000000    0.0683091    0.0000000    0.0000000    0.0000000
   68    0.0000000    0.0000000   -0.0000000    0.0000000    0.0000000
   69    0.0000000    0.0000000    0.0000000    0.0000000    0.0000000

 Ene     0.8132518    0.8132518    0.8213343    0.8481680    0.8871819
 Sym            B1           B2           A1           A1           B1
 Occ             0            0            0            0            0


                46           47           48           49           50

    1    0.0000000    0.0000000    0.0000000    0.0000000    0.0000000
    2    0.0000000    0.0000000    0.0000000    0.0000000    0.0000000
    3    0.0000000    0.0000000    0.0000000    0.0000000   -0.0000000
    4    0.0000000    0.0000000    0.0000000    0.0000000   -0.0000000
    5    0.0000000    0.0000000    0.0000000    0.0000000   -0.0000000
    6    0.0000000    0.0000000    0.0000000    0.0000000    0.0000000
    7    0.6138416    0.0000000    0.0000000    0.0000000    0.0000000
    8    0.0000000    0.0000000    0.0000000    0.0000000   -0.0000000
    9    0.0000000    0.0000000    0.0000000    0.0000000    0.0000000
   10    0.5088146   -0.0000000    0.0000000    0.0000000    0.0000000
   11    0.0000000    0.0000000    0.0000000    0.0000000   -0.0000000
   12    0.0000000    0.0000000   -0.0000000    0.0000000    0.0000000
   13   -0.0636369    0.0000000    0.0000000    0.0000000    0.0000000
   14    0.0000000    0.0000000    0.0000000    0.0000000   -0.0000000
   15    0.0000000    0.0000000    0.0000000    0.0000000    0.0000000
   16    0.7457058    0.0000000    0.0000000    0.0000000    0.0000000
   17    0.0000000    0.0000000    0.0000000    0.0000000    0.2711051
   18    0.0000000    0.0000000    0.0000000    0.2711051    0.0000000
   19    0.0000000    0.0000000    0.0000000    0.0000000   -0.0000000
   20    0.0000000    0.0000000   -0.0000000    0.0000000    0.0000000
   21    0.1506190   -0.0000000    0.0000000    0.0000000    0.0000000
   22    0.0000000    0.0000000    0.0000000    0.0000000   -0.3006029
   23    0.0000000    0.0000000    0.0000000   -0.3006029    0.0000000
   24    0.0000000    0.0000000    0.0000000    0.0000000   -0.0000000
   25    0.0000000    0.0000000    0.0000000    0.0000000    0.0000000
   26    1.5423695    0.0000000    0.0000000    0.0000000    0.0000000
   27    0.0000000    0.0000000    0.0000000    0.0000000    1.2511686
   28    0.0000000    0.0000000    0.0000000    1.2511686    0.0000000
   29    0.0000000    0.0000000    1.3746450    0.0000000    0.0000000
   30   -0.0000000    1.3746450    0.0000000    0.0000000    0.0000000
   31    0.0000000    0.0000000    0.0000000    0.0000000   -0.0000000
   32    0.0000000    0.0000000    0.0000000    0.0000000   -0.0000000
   33    0.0000000    0.0000000   -0.0000000    0.0000000    0.0000000
   34    0.0167268    0.0000000    0.0000000    0.0000000    0.0000000
   35    0.0000000    0.0000000    0.0000000    0.0000000   -0.0000000
   36    0.0000000    0.0000000    0.0000000    0.0000000    0.0000000
   37    0.1386424    0.0000000    0.0000000    0.0000000    0.0000000
   38    0.0000000    0.0000000    0.0000000    0.0000000    0.1029581
   39    0.0000000    0.0000000    0.0000000    0.1029581    0.0000000
   40    0.0000000    0.0000000    0.0000000    0.0000000   -0.0000000
   41    0.0000000    0.0000000   -0.0000000    0.0000000    0.0000000
   42   -0.5761573   -0.0000000    0.0000000    0.0000000    0.0000000
   43    0.0000000    0.0000000    0.0000000    0.0000000   -0.7679790
   44    0.0000000    0.0000000    0.0000000   -0.7679790    0.0000000
   45    0.0000000    0.0000000   -0.7726358    0.0000000    0.0000000
   46    0.0000000   -0.7726358    0.0000000    0.0000000    0.0000000
   47    0.0000000    0.0000000    0.0000000    0.0000000   -0.0000000
   48    0.0000000    0.0000000    0.0000000    0.0000000   -0.0000000
   49    0.0000000    0.0000000    0.0000000    0.0000000    0.0000000
   50    0.0000000    0.0000000    0.0000000    0.0000000    0.0000000
   51    0.0000000    0.0000000    0.0000000    0.0000000    0.0000000
   52    0.0239174   -0.0000000    0.0000000    0.0000000    0.0000000
   53    0.0000000    0.0000000    0.0000000    0.0000000    0.0000000
   54    0.0000000    0.0000000    0.0000000    0.0000000    0.0000000
   55   -0.0928462   -0.0000000    0.0000000    0.0000000    0.0000000
   56    0.0000000    0.0000000    0.0000000    0.0000000   -0.0000000
   57    0.0000000    0.0000000   -0.0000000    0.0000000    0.0000000
   58   -0.0160324    0.0000000    0.0000000    0.0000000    0.0000000
   59    0.0000000    0.0000000    0.0000000    0.0000000   -0.0186038
   60    0.0000000    0.0000000    0.0000000   -0.0186038    0.0000000
   61    0.0000000    0.0000000    0.0000000    0.0000000    0.0000000
   62    0.0000000    0.0000000    0.0000000    0.0000000   -0.0000000
   63    0.0000000    0.0000000   -0.0000000    0.0000000    0.0000000
   64   -1.1355394   -0.0000000    0.0000000    0.0000000    0.0000000
   65    0.0000000    0.0000000    0.0000000    0.0000000    0.0000000
   66    0.0000000    0.0000000    0.0000000    0.0000000    0.0000000
   67    0.7168135    0.0000000    0.0000000    0.0000000    0.0000000
   68    0.0000000    0.0000000    0.0000000    0.0000000    0.1935349
   69    0.0000000    0.0000000    0.0000000    0.1935349    0.0000000

 Ene     0.8871819    0.9410784    0.9410784    0.9523319    0.9523319
 Sym            B2           B2           B1           A2           A1
 Occ             0            0            0            0            0


                51           52           53           54           55

    1    0.2592832    0.0000000    0.0000000    0.0904225    0.0000000
    2    0.0793424    0.0000000    0.0000000    0.5569635    0.0000000
    3    4.2379273    0.0000000    0.0000000   -5.6030467    0.0000000
    4   -5.2892533   -0.0000000    0.0000000   -1.0532727    0.0000000
    5    1.8299604    0.0000000    0.0000000   -0.6724442    0.0000000
    6    0.0000000    0.0000000    0.0000000    0.0000000    1.2274129
    7    0.0000000    0.0000000    0.0000000    0.0000000    0.0000000
    8   -0.2199188   -0.0000000    0.0000000   -3.5481567    0.0000000
    9    0.0000000    0.0000000    0.0000000    0.0000000    1.8824008
   10    0.0000000    0.0000000    0.0000000    0.0000000    0.0000000
   11   -1.9804308   -0.0000000    0.0000000    0.4567698    0.0000000
   12    0.0000000    0.0000000    0.0000000    0.0000000   -0.3714717
   13    0.0000000    0.0000000    0.0000000    0.0000000    0.0000000
   14    0.8610695    0.0000000    0.0000000    1.5798652    0.0000000
   15    0.0000000    0.0000000    0.0000000    0.0000000    0.8121264
   16    0.0000000    0.0000000    0.0000000    0.0000000    0.0000000
   17   -0.0000000    0.4321798    0.0000000   -0.0000000    0.0000000
   18    0.0000000    0.0000000    0.4321798    0.0000000    0.0000000
   19    0.1201016    0.0000000    0.0000000   -1.9567007    0.0000000
   20    0.0000000    0.0000000    0.0000000    0.0000000    1.3697110
   21    0.0000000    0.0000000    0.0000000    0.0000000    0.0000000
   22   -0.0000000    0.1366052    0.0000000    0.0000000    0.0000000
   23    0.0000000    0.0000000    0.1366052    0.0000000    0.0000000
   24    1.2847933    0.0000000    0.0000000    1.2761508    0.0000000
   25    0.0000000    0.0000000    0.0000000    0.0000000   -0.1485364
   26    0.0000000    0.0000000    0.0000000    0.0000000    0.0000000
   27   -0.0000000    0.7685321    0.0000000    0.0000000    0.0000000
   28    0.0000000    0.0000000    0.7685321    0.0000000    0.0000000
   29    0.0000000    0.0000000    0.0000000    0.0000000    0.0000000
   30    0.0000000    0.0000000    0.0000000    0.0000000    0.0000000
   31   -0.1132373   -0.0000000    0.0000000   -0.0566038    0.0000000
   32    0.2453399    0.0000000    0.0000000   -0.2276570    0.0000000
   33    0.0000000    0.0000000    0.0000000    0.0000000    0.1218167
   34    0.0000000    0.0000000    0.0000000    0.0000000    0.0000000
   35   -0.9010756   -0.0000000    0.0000000    0.0637395    0.0000000
   36    0.0000000    0.0000000    0.0000000    0.0000000    0.1827830
   37    0.0000000    0.0000000    0.0000000    0.0000000    0.0000000
   38    0.0000000   -0.0140247    0.0000000   -0.0000000    0.0000000
   39    0.0000000    0.0000000   -0.0140247    0.0000000    0.0000000
   40   -0.7334577   -0.0000000    0.0000000   -0.8005381    0.0000000
   41    0.0000000    0.0000000    0.0000000    0.0000000    0.9096111
   42    0.0000000    0.0000000    0.0000000    0.0000000    0.0000000
   43   -0.0000000    0.0287594    0.0000000   -0.0000000    0.0000000
   44    0.0000000    0.0000000    0.0287594    0.0000000    0.0000000
   45    0.0000000    0.0000000    0.0000000    0.0000000   -0.0000000
   46    0.0000000    0.0000000    0.0000000    0.0000000    0.0000000
   47    0.0273644    0.0000000    0.0000000   -0.0505931    0.0000000
   48   -1.6622592   -0.0000000    0.0000000   -3.2096599    0.0000000
   49   -0.9474745    0.0000000    0.0000000    9.0232226    0.0000000
   50   -0.0310531   -0.0000000    0.0000000   -0.0131460    0.0000000
   51    0.0000000    0.0000000    0.0000000    0.0000000   -0.0327904
   52    0.0000000    0.0000000    0.0000000    0.0000000    0.0000000
   53    0.3258960    0.0000000    0.0000000    0.2662316    0.0000000
   54    0.0000000    0.0000000    0.0000000    0.0000000    0.4606619
   55    0.0000000    0.0000000    0.0000000    0.0000000    0.0000000
   56    0.0516873    0.0000000    0.0000000   -0.0783550    0.0000000
   57    0.0000000    0.0000000    0.0000000    0.0000000   -0.0855962
   58    0.0000000    0.0000000    0.0000000    0.0000000    0.0000000
   59   -0.0000000    0.0824942    0.0000000   -0.0000000    0.0000000
   60    0.0000000    0.0000000    0.0824942    0.0000000    0.0000000
   61    3.8275419    0.0000000    0.0000000    0.9252435    0.0000000
   62    1.7258840    0.0000000    0.0000000   -2.6028386    0.0000000
   63    0.0000000    0.0000000    0.0000000    0.0000000   -3.5229602
   64    0.0000000    0.0000000    0.0000000    0.0000000    0.0000000
   65   -0.9631778   -0.0000000    0.0000000    1.1975591    0.0000000
   66    0.0000000    0.0000000    0.0000000    0.0000000    1.6948973
   67    0.0000000    0.0000000    0.0000000    0.0000000    0.0000000
   68    0.0000000   -1.3551019    0.0000000   -0.0000000    0.0000000
   69    0.0000000    0.0000000   -1.3551019    0.0000000    0.0000000

 Ene     1.0674382    1.0920574    1.0920574    1.2938722    1.2958148
 Sym            A1           A1           A2           A1           B1
 Occ             0            0            0            0            0


                56           57           58           59           60

    1    0.0000000    0.9430172    0.0000000    0.0000000    1.4745004
    2    0.0000000    1.1713721    0.0000000    0.0000000    1.7727113
    3    0.0000000    4.6569595    0.0000000    0.0000000   -2.2234509
    4    0.0000000    0.1472387    0.0000000    0.0000000   -2.6830197
    5    0.0000000    2.1834185    0.0000000    0.0000000    0.1243951
    6    0.0000000    0.0000000    1.1324655    0.0000000    0.0000000
    7    1.2274129    0.0000000    0.0000000    1.1324655    0.0000000
    8    0.0000000    3.0147363    0.0000000    0.0000000   -2.1841730
    9    0.0000000    0.0000000    0.0159608    0.0000000    0.0000000
   10    1.8824008    0.0000000    0.0000000    0.0159608    0.0000000
   11    0.0000000   -0.5159514    0.0000000    0.0000000   -0.4402544
   12    0.0000000    0.0000000   -0.1151782    0.0000000    0.0000000
   13   -0.3714717    0.0000000    0.0000000   -0.1151782    0.0000000
   14    0.0000000    1.3376297    0.0000000    0.0000000    0.8280281
   15    0.0000000    0.0000000    1.7555652    0.0000000    0.0000000
   16    0.8121264    0.0000000    0.0000000    1.7555652    0.0000000
   17    0.0000000    0.0000000    0.0000000    0.0000000   -0.0000000
   18    0.0000000    0.0000000    0.0000000    0.0000000    0.0000000
   19    0.0000000    0.9959811    0.0000000    0.0000000   -0.5838757
   20    0.0000000    0.0000000   -0.5609936    0.0000000    0.0000000
   21    1.3697110    0.0000000    0.0000000   -0.5609936    0.0000000
   22    0.0000000   -0.0000000    0.0000000    0.0000000    0.0000000
   23    0.0000000    0.0000000    0.0000000    0.0000000    0.0000000
   24    0.0000000    0.2784016    0.0000000    0.0000000    0.5768375
   25    0.0000000    0.0000000    1.2698745    0.0000000    0.0000000
   26   -0.1485364    0.0000000    0.0000000    1.2698745    0.0000000
   27    0.0000000   -0.0000000    0.0000000    0.0000000    0.0000000
   28    0.0000000    0.0000000    0.0000000    0.0000000    0.0000000
   29    0.0000000    0.0000000    0.0000000    0.0000000    0.0000000
   30    0.0000000    0.0000000    0.0000000   -0.0000000    0.0000000
   31    0.0000000    0.0145842    0.0000000    0.0000000   -0.1105326
   32    0.0000000    0.1585107    0.0000000    0.0000000   -0.0878741
   33    0.0000000    0.0000000    0.0524242    0.0000000    0.0000000
   34    0.1218167    0.0000000    0.0000000    0.0524242    0.0000000
   35    0.0000000    0.3484253    0.0000000    0.0000000   -0.3801076
   36    0.0000000    0.0000000    0.0831262    0.0000000    0.0000000
   37    0.1827830    0.0000000    0.0000000    0.0831262    0.0000000
   38    0.0000000    0.0000000    0.0000000    0.0000000   -0.0000000
   39    0.0000000    0.0000000    0.0000000    0.0000000    0.0000000
   40    0.0000000    0.5524784    0.0000000    0.0000000   -0.1966130
   41    0.0000000    0.0000000   -0.5112710    0.0000000    0.0000000
   42    0.9096111    0.0000000    0.0000000   -0.5112710    0.0000000
   43    0.0000000    0.0000000    0.0000000    0.0000000    0.0000000
   44    0.0000000    0.0000000    0.0000000    0.0000000    0.0000000
   45    0.0000000    0.0000000   -0.0000000    0.0000000    0.0000000
   46    0.0000000    0.0000000    0.0000000   -0.0000000    0.0000000
   47    0.0000000   -0.0861900    0.0000000    0.0000000    1.6951609
   48    0.0000000   -0.9505921    0.0000000    0.0000000   -4.0620249
   49    0.0000000   -5.8790040    0.0000000    0.0000000    5.7348276
   50    0.0000000   -0.1347613    0.0000000    0.0000000   -0.0144540
   51    0.0000000    0.0000000    0.1202631    0.0000000    0.0000000
   52   -0.0327904    0.0000000    0.0000000    0.1202631    0.0000000
   53    0.0000000    2.0377047    0.0000000    0.0000000    0.4931878
   54    0.0000000    0.0000000   -1.9617300    0.0000000    0.0000000
   55    0.4606619    0.0000000    0.0000000   -1.9617300    0.0000000
   56    0.0000000   -0.0006970    0.0000000    0.0000000    0.1758203
   57    0.0000000    0.0000000   -0.0354015    0.0000000    0.0000000
   58   -0.0855962    0.0000000    0.0000000   -0.0354015    0.0000000
   59    0.0000000   -0.0000000    0.0000000    0.0000000    0.0000000
   60    0.0000000    0.0000000    0.0000000    0.0000000    0.0000000
   61    0.0000000    0.0310854    0.0000000    0.0000000    2.2324374
   62    0.0000000   -0.0332813    0.0000000    0.0000000   -1.6214408
   63    0.0000000    0.0000000    0.0141680    0.0000000    0.0000000
   64   -3.5229602    0.0000000    0.0000000    0.0141680    0.0000000
   65    0.0000000   -0.0294849    0.0000000    0.0000000    0.3175938
   66    0.0000000    0.0000000    1.3174732    0.0000000    0.0000000
   67    1.6948973    0.0000000    0.0000000    1.3174732    0.0000000
   68    0.0000000   -0.0000000    0.0000000    0.0000000   -0.0000000
   69    0.0000000    0.0000000    0.0000000    0.0000000    0.0000000

 Ene     1.2958148    1.5467857    1.5755944    1.5755944    3.2548278
 Sym            B2           A1           B1           B2           A1
 Occ             0            0            0            0            0


                61           62           63           64           65

    1    5.9876802    0.0000000   -0.0000000    0.0000000    0.0000000
    2    6.6779338    0.0000000   -0.0000000    0.0000000    0.0000000
    3   -0.9491835    0.0000000    0.0000000    0.0000000    0.0000000
    4    0.5929307    0.0000000    0.0000000    0.0000000    0.0000000
    5   -0.9959605    0.0000000   -0.0000000    0.0000000    0.0000000
    6    0.0000000    0.0000000    0.0000000    0.4044785    0.0000000
    7    0.0000000    0.0000000    0.0000000    0.0000000    0.4044785
    8    0.8056277    0.0000000    0.0000000    0.0000000    0.0000000
    9    0.0000000    0.0000000    0.0000000    0.7096940    0.0000000
   10    0.0000000    0.0000000    0.0000000    0.0000000    0.7096940
   11   -0.0408047    0.0000000    0.0000000    0.0000000    0.0000000
   12    0.0000000    0.0000000    0.0000000   -0.2138868    0.0000000
   13    0.0000000    0.0000000    0.0000000    0.0000000   -0.2138868
   14   -0.2921141    0.0000000   -0.0000000    0.0000000    0.0000000
   15    0.0000000    0.0000000    0.0000000    0.2457735    0.0000000
   16    0.0000000    0.0000000    0.0000000    0.0000000    0.2457735
   17   -0.0000000    0.0000000    0.0290713    0.0000000    0.0000000
   18    0.0000000    0.0290713    0.0000000    0.0000000    0.0000000
   19    0.6902486    0.0000000    0.0000000    0.0000000    0.0000000
   20    0.0000000    0.0000000    0.0000000    0.5498973    0.0000000
   21    0.0000000    0.0000000    0.0000000    0.0000000    0.5498973
   22    0.0000000    0.0000000    0.1328249    0.0000000    0.0000000
   23    0.0000000    0.1328249    0.0000000    0.0000000    0.0000000
   24    0.0014474    0.0000000   -0.0000000    0.0000000    0.0000000
   25    0.0000000    0.0000000    0.0000000    0.0323476    0.0000000
   26    0.0000000    0.0000000    0.0000000    0.0000000    0.0323476
   27   -0.0000000    0.0000000    0.0339692    0.0000000    0.0000000
   28    0.0000000    0.0339692    0.0000000    0.0000000    0.0000000
   29    0.0000000    0.0000000    0.0000000   -0.0000000    0.0000000
   30    0.0000000    0.0000000    0.0000000    0.0000000    0.0000000
   31   -0.0936136    0.0000000    0.0000000    0.0000000    0.0000000
   32    0.0070398    0.0000000   -0.0000000    0.0000000    0.0000000
   33    0.0000000    0.0000000    0.0000000    0.0791995    0.0000000
   34    0.0000000    0.0000000    0.0000000    0.0000000    0.0791995
   35    0.0884356    0.0000000    0.0000000    0.0000000    0.0000000
   36    0.0000000    0.0000000    0.0000000   -0.0084876    0.0000000
   37    0.0000000    0.0000000    0.0000000    0.0000000   -0.0084876
   38   -0.0000000    0.0000000   -0.0360231    0.0000000    0.0000000
   39    0.0000000   -0.0360231    0.0000000    0.0000000    0.0000000
   40    0.3504833    0.0000000    0.0000000    0.0000000    0.0000000
   41    0.0000000    0.0000000    0.0000000    0.2571758    0.0000000
   42    0.0000000    0.0000000    0.0000000    0.0000000    0.2571758
   43    0.0000000    0.0000000    0.1249044    0.0000000    0.0000000
   44    0.0000000    0.1249044    0.0000000    0.0000000    0.0000000
   45    0.0000000    0.0000000    0.0000000    0.0000000    0.0000000
   46    0.0000000    0.0000000    0.0000000    0.0000000   -0.0000000
   47   -0.3342530    0.0000000   -0.0000000    0.0000000    0.0000000
   48    0.2997100    0.0000000    0.0000000    0.0000000    0.0000000
   49    0.2780657    0.0000000   -0.0000000    0.0000000    0.0000000
   50   -0.3027618    0.0000000    0.0000000    0.0000000    0.0000000
   51    0.0000000    0.0000000    0.0000000    0.0530341    0.0000000
   52    0.0000000    0.0000000    0.0000000    0.0000000    0.0530341
   53   -0.1301748    0.0000000   -0.0000000    0.0000000    0.0000000
   54    0.0000000    0.0000000    0.0000000   -0.0431680    0.0000000
   55    0.0000000    0.0000000    0.0000000    0.0000000   -0.0431680
   56    0.0243884    0.0000000    0.0000000    0.0000000    0.0000000
   57    0.0000000    0.0000000    0.0000000   -1.1538057    0.0000000
   58    0.0000000    0.0000000    0.0000000    0.0000000   -1.1538057
   59   -0.0000000    0.0000000    1.1256690    0.0000000    0.0000000
   60    0.0000000    1.1256690    0.0000000    0.0000000    0.0000000
   61    0.0758169    0.0000000   -0.0000000    0.0000000    0.0000000
   62   -1.5344374    0.0000000    0.0000000    0.0000000    0.0000000
   63    0.0000000    0.0000000    0.0000000   -1.1133558    0.0000000
   64    0.0000000    0.0000000    0.0000000    0.0000000   -1.1133558
   65    0.7336554    0.0000000   -0.0000000    0.0000000    0.0000000
   66    0.0000000    0.0000000    0.0000000    0.8181426    0.0000000
   67    0.0000000    0.0000000    0.0000000    0.0000000    0.8181426
   68    0.0000000    0.0000000   -0.5443934    0.0000000    0.0000000
   69    0.0000000   -0.5443934    0.0000000    0.0000000    0.0000000

 Ene     3.4547149    4.0978936    4.0978936    4.1702172    4.1702172
 Sym            A1           A2           A1           B1           B2
 Occ             0            0            0            0            0


                66           67           68           69

[...]
   59    0.0000000   -0.0000000    0.0000000    0.0000000    0.0000000
   60    0.0000000    0.0000000    0.0000000    0.0000000    0.0000000
   61    0.0000000    0.0310854    0.0000000    0.0000000    2.2324374
   62    0.0000000   -0.0332813    0.0000000    0.0000000   -1.6214408
   63    0.0000000    0.0000000    0.0141680    0.0000000    0.0000000
   64   -3.5229602    0.0000000    0.0000000    0.0141680    0.0000000
   65    0.0000000   -0.0294849    0.0000000    0.0000000    0.3175938
   66    0.0000000    0.0000000    1.3174732    0.0000000    0.0000000
   67    1.6948973    0.0000000    0.0000000    1.3174732    0.0000000
   68    0.0000000   -0.0000000    0.0000000    0.0000000   -0.0000000
   69    0.0000000    0.0000000    0.0000000    0.0000000    0.0000000

 Ene     1.2958148    1.5467857    1.5755944    1.5755944    3.2548278
 Sym            B2           A1           B1           B2           A1
 Occ             0            0            0            0            0


                61           62           63           64           65

    1    5.9876802    0.0000000   -0.0000000    0.0000000    0.0000000
    2    6.6779338    0.0000000   -0.0000000    0.0000000    0.0000000
    3   -0.9491835    0.0000000    0.0000000    0.0000000    0.0000000
    4    0.5929307    0.0000000    0.0000000    0.0000000    0.0000000
    5   -0.9959605    0.0000000   -0.0000000    0.0000000    0.0000000
    6    0.0000000    0.0000000    0.0000000    0.4044785    0.0000000
    7    0.0000000    0.0000000    0.0000000    0.0000000    0.4044785
    8    0.8056277    0.0000000    0.0000000    0.0000000    0.0000000
    9    0.0000000    0.0000000    0.0000000    0.7096940    0.0000000
   10    0.0000000    0.0000000    0.0000000    0.0000000    0.7096940
   11   -0.0408047    0.0000000    0.0000000    0.0000000    0.0000000
   12    0.0000000    0.0000000    0.0000000   -0.2138868    0.0000000
   13    0.0000000    0.0000000    0.0000000    0.0000000   -0.2138868
   14   -0.2921141    0.0000000   -0.0000000    0.0000000    0.0000000
   15    0.0000000    0.0000000    0.0000000    0.2457735    0.0000000
   16    0.0000000    0.0000000    0.0000000    0.0000000    0.2457735
   17   -0.0000000    0.0000000    0.0290713    0.0000000    0.0000000
   18    0.0000000    0.0290713    0.0000000    0.0000000    0.0000000
   19    0.6902486    0.0000000    0.0000000    0.0000000    0.0000000
   20    0.0000000    0.0000000    0.0000000    0.5498973    0.0000000
   21    0.0000000    0.0000000    0.0000000    0.0000000    0.5498973
   22    0.0000000    0.0000000    0.1328249    0.0000000    0.0000000
   23    0.0000000    0.1328249    0.0000000    0.0000000    0.0000000
   24    0.0014474    0.0000000   -0.0000000    0.0000000    0.0000000
   25    0.0000000    0.0000000    0.0000000    0.0323476    0.0000000
   26    0.0000000    0.0000000    0.0000000    0.0000000    0.0323476
   27   -0.0000000    0.0000000    0.0339692    0.0000000    0.0000000
   28    0.0000000    0.0339692    0.0000000    0.0000000    0.0000000
   29    0.0000000    0.0000000    0.0000000   -0.0000000    0.0000000
   30    0.0000000    0.0000000    0.0000000    0.0000000    0.0000000
   31   -0.0936136    0.0000000    0.0000000    0.0000000    0.0000000
   32    0.0070398    0.0000000   -0.0000000    0.0000000    0.0000000
   33    0.0000000    0.0000000    0.0000000    0.0791995    0.0000000
   34    0.0000000    0.0000000    0.0000000    0.0000000    0.0791995
   35    0.0884356    0.0000000    0.0000000    0.0000000    0.0000000
   36    0.0000000    0.0000000    0.0000000   -0.0084876    0.0000000
   37    0.0000000    0.0000000    0.0000000    0.0000000   -0.0084876
   38   -0.0000000    0.0000000   -0.0360231    0.0000000    0.0000000
   39    0.0000000   -0.0360231    0.0000000    0.0000000    0.0000000
   40    0.3504833    0.0000000    0.0000000    0.0000000    0.0000000
   41    0.0000000    0.0000000    0.0000000    0.2571758    0.0000000
   42    0.0000000    0.0000000    0.0000000    0.0000000    0.2571758
   43    0.0000000    0.0000000    0.1249044    0.0000000    0.0000000
   44    0.0000000    0.1249044    0.0000000    0.0000000    0.0000000
   45    0.0000000    0.0000000    0.0000000    0.0000000    0.0000000
   46    0.0000000    0.0000000    0.0000000    0.0000000   -0.0000000
   47   -0.3342530    0.0000000   -0.0000000    0.0000000    0.0000000
   48    0.2997100    0.0000000    0.0000000    0.0000000    0.0000000
   49    0.2780657    0.0000000   -0.0000000    0.0000000    0.0000000
   50   -0.3027618    0.0000000    0.0000000    0.0000000    0.0000000
   51    0.0000000    0.0000000    0.0000000    0.0530341    0.0000000
   52    0.0000000    0.0000000    0.0000000    0.0000000    0.0530341
   53   -0.1301748    0.0000000   -0.0000000    0.0000000    0.0000000
   54    0.0000000    0.0000000    0.0000000   -0.0431680    0.0000000
   55    0.0000000    0.0000000    0.0000000    0.0000000   -0.0431680
   56    0.0243884    0.0000000    0.0000000    0.0000000    0.0000000
   57    0.0000000    0.0000000    0.0000000   -1.1538057    0.0000000
   58    0.0000000    0.0000000    0.0000000    0.0000000   -1.1538057
   59   -0.0000000    0.0000000    1.1256690    0.0000000    0.0000000
   60    0.0000000    1.1256690    0.0000000    0.0000000    0.0000000
   61    0.0758169    0.0000000   -0.0000000    0.0000000    0.0000000
   62   -1.5344374    0.0000000    0.0000000    0.0000000    0.0000000
   63    0.0000000    0.0000000    0.0000000   -1.1133558    0.0000000
   64    0.0000000    0.0000000    0.0000000    0.0000000   -1.1133558
   65    0.7336554    0.0000000   -0.0000000    0.0000000    0.0000000
   66    0.0000000    0.0000000    0.0000000    0.8181426    0.0000000
   67    0.0000000    0.0000000    0.0000000    0.0000000    0.8181426
   68    0.0000000    0.0000000   -0.5443934    0.0000000    0.0000000
   69    0.0000000   -0.5443934    0.0000000    0.0000000    0.0000000

 Ene     3.4547149    4.0978936    4.0978936    4.1702172    4.1702172
 Sym            A1           A2           A1           B1           B2
 Occ             0            0            0            0            0


                66           67           68           69

    1    1.6215903    0.0000000    0.0000000    1.9017195
    2    2.0542429    0.0000000    0.0000000    2.1318145
    3   -1.6093827    0.0000000    0.0000000   -2.1429866
    4    0.0592775    0.0000000    0.0000000   -0.0563350
    5   -0.0874922    0.0000000    0.0000000   -1.2307610
    6    0.0000000    0.0000000    0.3088448    0.0000000
    7    0.0000000    0.3088448    0.0000000    0.0000000
    8   -0.5703810    0.0000000    0.0000000   -1.0650475
    9    0.0000000    0.0000000   -0.2951055    0.0000000
   10    0.0000000   -0.2951055    0.0000000    0.0000000
   11    0.1551425    0.0000000    0.0000000    0.1254842
   12    0.0000000    0.0000000   -0.0104799    0.0000000
   13    0.0000000   -0.0104799    0.0000000    0.0000000
   14    0.6536287    0.0000000    0.0000000   -0.5048410
   15    0.0000000    0.0000000    0.5647980    0.0000000
   16    0.0000000    0.5647980    0.0000000    0.0000000
   17   -0.0000000    0.0000000    0.0000000   -0.0000000
   18    0.0000000    0.0000000    0.0000000    0.0000000
   19   -0.2743115    0.0000000    0.0000000   -0.2943454
   20    0.0000000    0.0000000   -0.3768350    0.0000000
   21    0.0000000   -0.3768350    0.0000000    0.0000000
   22    0.0000000    0.0000000    0.0000000    0.0000000
   23    0.0000000    0.0000000    0.0000000    0.0000000
   24    0.4378880    0.0000000    0.0000000    0.0098973
   25    0.0000000    0.0000000    0.4590529    0.0000000
   26    0.0000000    0.4590529    0.0000000    0.0000000
   27   -0.0000000    0.0000000    0.0000000   -0.0000000
   28    0.0000000    0.0000000    0.0000000    0.0000000
   29    0.0000000    0.0000000   -0.0000000    0.0000000
   30    0.0000000    0.0000000    0.0000000    0.0000000
   31   -0.0328154    0.0000000    0.0000000   -0.0273237
   32   -0.0590355    0.0000000    0.0000000   -0.0443488
   33    0.0000000    0.0000000    0.0119147    0.0000000
   34    0.0000000    0.0119147    0.0000000    0.0000000
   35    0.0829367    0.0000000    0.0000000   -0.1583944
   36    0.0000000    0.0000000   -0.0441336    0.0000000
   37    0.0000000   -0.0441336    0.0000000    0.0000000
   38   -0.0000000    0.0000000    0.0000000   -0.0000000
   39    0.0000000    0.0000000    0.0000000    0.0000000
   40   -0.0829934    0.0000000    0.0000000   -0.2047641
   41    0.0000000    0.0000000   -0.3044503    0.0000000
   42    0.0000000   -0.3044503    0.0000000    0.0000000
   43    0.0000000    0.0000000    0.0000000    0.0000000
   44    0.0000000    0.0000000    0.0000000    0.0000000
   45    0.0000000    0.0000000    0.0000000    0.0000000
   46    0.0000000   -0.0000000    0.0000000    0.0000000
   47    0.4174294    0.0000000    0.0000000   -0.2191718
   48   -1.7668764    0.0000000    0.0000000    0.4637892
   49    2.5504891    0.0000000    0.0000000    2.7427334
   50    0.1159108    0.0000000    0.0000000    1.3955239
   51    0.0000000    0.0000000    1.4148350    0.0000000
   52    0.0000000    1.4148350    0.0000000    0.0000000
   53    0.2500520    0.0000000    0.0000000   -1.6132419
   54    0.0000000    0.0000000   -1.4814219    0.0000000
   55    0.0000000   -1.4814219    0.0000000    0.0000000
   56   -1.1515748    0.0000000    0.0000000    0.1272895
   57    0.0000000    0.0000000    0.0377670    0.0000000
   58    0.0000000    0.0377670    0.0000000    0.0000000
   59    0.0000000    0.0000000    0.0000000   -0.0000000
   60    0.0000000    0.0000000    0.0000000    0.0000000
   61    0.1230741    0.0000000    0.0000000    0.0788547
   62   -1.3337797    0.0000000    0.0000000   -0.2993067
   63    0.0000000    0.0000000    0.6567537    0.0000000
   64    0.0000000    0.6567537    0.0000000    0.0000000
   65    0.9041709    0.0000000    0.0000000    0.3145576
   66    0.0000000    0.0000000    0.3245330    0.0000000
   67    0.0000000    0.3245330    0.0000000    0.0000000
   68   -0.0000000    0.0000000    0.0000000   -0.0000000
   69    0.0000000    0.0000000    0.0000000    0.0000000

 Ene     4.2580684    4.5219758    4.5219758    4.6650302
 Sym            A1           B2           B1           A1
 Occ             0            0            0            0


*** tstop() called on  at Tue Aug  2 13:01:45 2016
Module time:
	user time   =      34.28 seconds =       0.57 minutes
	system time =       0.76 seconds =       0.01 minutes
	total time  =          2 seconds =       0.03 minutes
Total time:
	user time   =     115.57 seconds =       1.93 minutes
	system time =       2.64 seconds =       0.04 minutes
	total time  =         11 seconds =       0.18 minutes


Properties will be evaluated at   0.000000,   0.000000,   0.000000 Bohr

Properties computed using the SCF density matrix

  Nuclear Dipole Moment: (a.u.)
     X:     0.0000      Y:     0.0000      Z:     1.5327

  Electronic Dipole Moment: (a.u.)
     X:     0.0000      Y:     0.0000      Z:    -3.9275

  Dipole Moment: (a.u.)
     X:     0.0000      Y:     0.0000      Z:    -2.3948     Total:     2.3948

  Dipole Moment: (Debye)
     X:     0.0000      Y:     0.0000      Z:    -6.0870     Total:     6.0870

 MINTS: Wrapper to libmints.
   by Justin Turney

   Calculation information:
      Number of atoms:                   2
      Number of AO shells:              23
      Number of SO shells:              23
      Number of primitives:             43
      Number of atomic orbitals:        80
      Number of basis functions:        69

      Number of irreps:                  4
      Integral cutoff                 0.00e+00
      Number of functions per irrep: [  30    7   16   16 ]

 OEINTS: Overlap, kinetic, potential, dipole, and quadrupole integrals
         stored in file 35.

      Computing two-electron integrals...done
      Computed 612138 non-zero two-electron integrals.
        Stored in file 33.


         ---------------------------------------------------------
                                 D E T C I  

                             C. David Sherrill
                             Matt L. Leininger
                               18 June 1999
         ---------------------------------------------------------


DETCI PARAMETERS: 
   EX LEVEL      =        1      H0 BLOCKSIZE =     1000
   VAL EX LEVEL  =        0      H0 GUESS SIZE=     1000
   H0COUPLINGSIZE=        0      H0 COUPLING  =       no
   MAXITER       =       24      NUM PRINT    =       -1
   NUM ROOTS     =        1      ICORE        =        1
   PRINT         =        1      FCI          =       no
   R CONV        = 1.00e-04      MIXED        =      yes
   E CONV        = 1.00e-08      MIXED4       =      yes
   R4S           =       no      REPL OTF     =       no
   DIAG METHOD   =      SEM
   PRECONDITIONER= DAVIDSON      UPDATE       = DAVIDSON
   S             =   0.0000      Ms0          =      yes
   MAX NUM VECS  =       25
   RESTART       =       no
   GUESS VECTOR  =  H0BLOCK      OPENTYPE     =     NONE
   REF SYM       =        3
   COLLAPSE SIZE =        1      HD AVG       = EVANGELISTI
   LSE           =       no      LSE ITER     =        0
   HD OTF        =      yes      NO DFILE     =       no
   MPN           =       no      MPN SCHMIDT  =       no
   ZAPTN         =       no      MPN WIGNER   =       no
   PERT Z        =   1.0000      FOLLOW ROOT  =        0
   NUM THREADS   =       20
   FILTER GUESS  =       no      SF RESTRICT  =       no
   OPDM          =      yes      TRANS DENSITY=      yes

   FILES         =  50 51 52 53

   EX ALLOW      =  1 
   STATE AVERAGE =  1(1.00) 

ORBITALS:
   NMO          =       69
   FROZEN CORE  =        0      RESTR CORE   =        0
   FROZEN VIRT  =        0      RESTR VIRT   =        0
   DROPPED CORE =        0      DROPPED VIRT =        0
   EXPLICIT CORE=        0      ORBS IN CI   =       69
   NUM ALP      =        2      NUM BET      =        2
   NUM ALP EXPL =        2      NUM BET EXPL =        2
   IOPEN        =       no
   RAS1 LVL     =        1      A RAS3 MAX   =        1
   RAS1 MIN     =        3      B RAS3 MAX   =        1
   A RAS1 LVL   =        1      RAS4 LVL     =       69
   A RAS1 MIN   =        1      A RAS4 MAX   =        0
   A RAS1 MAX   =        2      B RAS4 MAX   =        0
   B RAS1 LVL   =        1      RAS4 MAX     =        0
   B RAS1 MIN   =        1      A RAS34 MAX  =        1
   B RAS1 MAX   =        2      B RAS34 MAX  =        1
   RAS3 LVL     =        2      RAS34 MAX    =        1
   RAS3 MAX     =        1

   DOCC            =   2   0   0   0 
   SOCC            =   0   0   0   0 

   FROZEN DOCC     =   0   0   0   0 
   RESTRICTED DOCC =   0   0   0   0 
   RAS 1           =   2   0   0   0 
   RAS 2           =   0   0   0   0 
   RAS 3           =  28   7  16  16 
   RAS 4           =   0   0   0   0 
   RESTRICTED UOCC =   0   0   0   0 
   FROZEN UOCC     =   0   0   0   0 
         ---------------------------------------------------------


   ==> Setting up CI strings <==

   There are 135 alpha and 135 beta strings
   The CI space requires 64 (6.40E+01) determinants and 2 blocks


   ==> Transforming CI integrals <==
	Presorting SO-basis two-electron integrals.
	Sorting File: SO Ints (nn|nn) nbuckets = 1
	Transforming the one-electron integrals and constructing Fock matrices
	Starting first half-transformation.
	Sorting half-transformed integrals.
	First half integral transformation complete.
	Starting second half-transformation.
	Two-electron integral transformation complete.

*** H0 Block Eigenvalue =  -7.83438446

Find the roots by the Simultaneous Expansion Method (Block Davidson Method)
Using 1 initial trial vectors
(sem_iter): H0block_->H0b_diag[0][0] - H0block_->H0b_diag[1][0] = 0.305302 - -0.305302 = 0.610604 > 1.0E-8
Iter  0  Root  1 =  -7.800947138   Delta_E -8.775E+00   Delta_C  3.130E-13  
Warning: Norm of correction (root 0) is < 1.0E-13
Iter  1  Root  1 =  -7.800947138   Delta_E  0.000E+00   Delta_C  2.246E-12 c

* ROOT 1 CI total energy =  -7.8009471377853


The 64 most important determinants

    1   -0.494186  (    0,  105)  1A1X  2A1A  2B2B  
    2   -0.494186  (  105,    0)  1A1X  2A1B  2B2A  
    3   -0.414369  (    0,  103)  1A1X  2A1A  1B2B  
    4   -0.414369  (  103,    0)  1A1X  2A1B  1B2A  
    5   -0.229311  (    0,  109)  1A1X  2A1A  4B2B  
    6   -0.229311  (  109,    0)  1A1X  2A1B  4B2A  
    7   -0.169282  (    0,  107)  1A1X  2A1A  3B2B  
    8   -0.169282  (  107,    0)  1A1X  2A1B  3B2A  
    9   -0.028900  (    0,  111)  1A1X  2A1A  5B2B  
   10   -0.028900  (  111,    0)  1A1X  2A1B  5B2A  
   11   -0.027093  (    0,  115)  1A1X  2A1A  7B2B  
   12   -0.027093  (  115,    0)  1A1X  2A1B  7B2A  
   13   -0.025973  (    0,  117)  1A1X  2A1A  8B2B  
   14   -0.025973  (  117,    0)  1A1X  2A1B  8B2A  
   15   -0.022846  (    0,  119)  1A1X  2A1A  9B2B  
   16   -0.022846  (  119,    0)  1A1X  2A1B  9B2A  
   17   -0.005082  (    0,  129)  1A1X  2A1A  14B2B  
   18   -0.005082  (  129,    0)  1A1X  2A1B  14B2A  
   19    0.003461  (    0,  123)  1A1X  2A1A  11B2B  
   20    0.003461  (  123,    0)  1A1X  2A1B  11B2A  
   21    0.003262  (    0,  120)  1A1A  2A1X  9B2B  
   22    0.003262  (  120,    0)  1A1B  2A1X  9B2A  
   23    0.002752  (    0,  118)  1A1A  2A1X  8B2B  
   24    0.002752  (  118,    0)  1A1B  2A1X  8B2A  
   25   -0.002726  (    0,  121)  1A1X  2A1A  10B2B  
   26   -0.002726  (  121,    0)  1A1X  2A1B  10B2A  
   27    0.001985  (    0,  110)  1A1A  2A1X  4B2B  
   28    0.001985  (  110,    0)  1A1B  2A1X  4B2A  
   29    0.001192  (    0,  130)  1A1A  2A1X  14B2B  
   30    0.001192  (  130,    0)  1A1B  2A1X  14B2A  
   31    0.001137  (    0,  128)  1A1A  2A1X  13B2B  
   32    0.001137  (  128,    0)  1A1B  2A1X  13B2A  
   33    0.001075  (    0,  106)  1A1A  2A1X  2B2B  
   34    0.001075  (  106,    0)  1A1B  2A1X  2B2A  
   35    0.000756  (    0,  124)  1A1A  2A1X  11B2B  
   36    0.000756  (  124,    0)  1A1B  2A1X  11B2A  
   37    0.000469  (    0,  133)  1A1X  2A1A  16B2B  
   38    0.000469  (  133,    0)  1A1X  2A1B  16B2A  
   39    0.000381  (    0,  104)  1A1A  2A1X  1B2B  
   40    0.000381  (  104,    0)  1A1B  2A1X  1B2A  
   41    0.000245  (    0,  122)  1A1A  2A1X  10B2B  
   42    0.000245  (  122,    0)  1A1B  2A1X  10B2A  
   43    0.000183  (    0,  108)  1A1A  2A1X  3B2B  
   44    0.000183  (  108,    0)  1A1B  2A1X  3B2A  
   45    0.000177  (    0,  131)  1A1X  2A1A  15B2B  
   46    0.000177  (  131,    0)  1A1X  2A1B  15B2A  
   47    0.000159  (    0,  134)  1A1A  2A1X  16B2B  
   48    0.000159  (  134,    0)  1A1B  2A1X  16B2A  
   49    0.000144  (    0,  116)  1A1A  2A1X  7B2B  
   50    0.000144  (  116,    0)  1A1B  2A1X  7B2A  
   51    0.000139  (    0,  132)  1A1A  2A1X  15B2B  
   52    0.000139  (  132,    0)  1A1B  2A1X  15B2A  
   53    0.000131  (    0,  112)  1A1A  2A1X  5B2B  
   54    0.000131  (  112,    0)  1A1B  2A1X  5B2A  
   55   -0.000053  (    0,  127)  1A1X  2A1A  13B2B  
   56   -0.000053  (  127,    0)  1A1X  2A1B  13B2A  


		 "A good bug is a dead bug" 

			 - Starship Troopers

		 "I didn't write FORTRAN.  That's the problem."

			 - Edward Valeev



Properties will be evaluated at   0.000000,   0.000000,   0.000000 Bohr

Properties computed using the CI density matrix

  Nuclear Dipole Moment: (a.u.)
     X:     0.0000      Y:     0.0000      Z:     1.5327

  Electronic Dipole Moment: (a.u.)
     X:     0.0000      Y:     0.0000      Z:    -1.0249

  Dipole Moment: (a.u.)
     X:     0.0000      Y:     0.0000      Z:     0.5077     Total:     0.5077

  Dipole Moment: (Debye)
     X:     0.0000      Y:     0.0000      Z:     1.2905     Total:     1.2905


*** Psi4 exiting successfully. Buy a developer a beer!
