[Molden Format]
[Molpro variables]
_NUMVAR=  783.0000000000000    
_AVOGAD= 0.6022136736000000E+24
_BOLTZ= 0.1380658000000000E-22
_CLIGHT=  29979245800.00000    
_EV2006= 0.3674930886769165E-01
_EV= 0.3674932534394180E-01
_ENULL= 0.8854187817000000E-11
_KJOULE= 0.3808798324128737E-03
_KJOULE/MOL= 0.3808798324128737E-03
_CM= 0.4556335267302901E-05
_CM-1= 0.4556335267302901E-05
_DEB2SI= 0.3335641000000000E-29
_AMU2AU=  1822.888390000000    
_KCAL= 0.1593601117815568E-02
_KCAL/MOL= 0.1593601117815568E-02
_KELVIN2006= 0.3166828861084835E-05
_KELVIN= 0.3166814820820034E-05
_JOULE= 0.4359748200000000E-17
_HERTZ2006= 0.1519829850815779E-15
_HERTZ= 0.1519829846011223E-15
_HZ2006= 0.1519829850815779E-15
_HZ= 0.1519829846011223E-15
_JPCAL=  4.184000000000000    
_PLANCK= 0.6626075540000000E-33
_TOA2006= 0.5291772490000000    
_TOA= 0.5291772090000000    
_TOANG2006= 0.5291772490000000    
_TOANG= 0.5291772090000000    
_TORAD= 0.1745329251994330E-01
_TOCM=  219474.6306700000    
_TODEBYE=  2.541580000000000    
_TOEV2006=  27.21139610000000    
_TOE= 0.4803242000000000E-09
_TOEV=  27.21138390000000    
_TOHERTZ2006=  6579683899900000.    
_TOHERTZ=  6579683920700000.    
_TOHZ2006=  6579683899900000.    
_TOHZ=  6579683920700000.    
_TOK2006=  315773.3000000000    
_TOK=  315774.7000000000    
_TOKCAL=  627.5096000000000    
_TOKELVIN2006=  315773.3000000000    
_TOKELVIN=  315774.7000000000    
_TOKJ=  2625.500000000000    
_TOKJOULE=  2625.500000000000    
_TOKG= 0.1660565586000000E-26
_ANG2006=  1.889725988578923    
_ANG=  1.889726131421507    
_ANGSTROM2006=  1.889725988578923    
_ANGSTROM=  1.889726131421507    
_RPAREF=  0.000000000000000    
_RPADISS=  0.000000000000000    
_IGNORE_UNDEF=  2.000000000000000    
_STRICTCHECK=  0.000000000000000    
_SEW_ONEEL=  0.000000000000000    
_CPPDONE=FALSE
_DKROLL_DONE=  0.000000000000000    
_FOCKDONE=TRUE
_GRADONE=FALSE
_HESSDONE=FALSE
_INTDONE=TRUE
_SCFDONE=TRUE
_MODUL_BLOCK=FALSE
_MODUL_CUDA=FALSE
_MODUL_SLATER=FALSE
_MODUL_MRCC=FALSE
_MODUL_NBO6=FALSE
_MODUL_NECI=TRUE
_MODUL_AIMS=TRUE
_MRCC_EXEC=
_FITC_AO_SAVED=FALSE
_FITC_MO_SAVED=FALSE
_SHARED_FS=TRUE
_LSTYP=SEWARD
_INTYP=INTS
_GEOMTYP=ZMAT
_GRADTYP=ALASKA
_DIRECT=FALSE
_DKHO=-1.0000000000000000    
_SYNCM=  0.000000000000000    
_BASIS=CC-PVDZ
_ZORIENT= 1.0000000000000000    
_NELEC= 10.000000000000000    
!SPIN=  0.000000000000000    
_QSDSTEP=  0.000000000000000    
_QSDIRC=  0.000000000000000    
_PROGRAM=UHF-SCF
_CPUSTEP= 0.1000000000000001E-01
_SYSSTEP= 0.1000000000000001E-01
_WALLSTEP= 0.3000000000000000E-01
!DFSCF=  0.000000000000000    
!SCSGRD=  0.000000000000000    
_BASINP=  610.0000000000000    
_CPUTOT= 0.1600000000000000    
_CPUSORT= 0.3000000000000000E-01
_SYSSORT= 0.2000000000000000E-01
_WALLSORT= 0.5000000074505806E-01
_DMX=  0.000000000000000    
_DMY=  0.000000000000000    
_DMZ= 0.8172586601014701    
_DMX_SCF=  0.000000000000000    
_DMY_SCF=  0.000000000000000    
_DMZ_SCF= 0.8172586601014701    
_EHOMO=-0.4841846481230775    
_ELUMO= 0.1592014854818433    
_ENERGY= -75.99204487445877    
_ENUC=  8.064982892813699    
_EPS1= -20.56924885374011    
_EPS2=-0.4841846481230775    
_EPS3=-0.6416239643677357    
_EPS4=  1.439361301041135    
_GRADEXFAC=  9999.000000000000    
_GRADMETHOD=  3.000000000000000    
_NMRMETHOD=  0.000000000000000    
!GRID_FREEZE=-1.0000000000000000    
_ITERATIONS=  11.00000000000000    
_LASTNELEC= 10.000000000000000    
_LASTSPIN=  0.000000000000000    
_LASTSYM= 1.0000000000000000    
_MPP_PROG=  0.000000000000000    
_NPROC_MPP= 1.0000000000000000    
_NPROC_MPPX= 1.0000000000000000    
_NPROC_SMP= 1.0000000000000000    
_NUMSTEP=  0.000000000000000    
_ORBITAL=  2100.200000000000    
_PI=  3.141592653589793    
_SEIG_MIN= 0.2095245689662176E-01
_SEWPROP=TRUE
_SSQUARED= 0.6217248937900877E-14
_STATUS= 1.0000000000000000    
_SYSTOT= 0.6000000000000000E-01
_VERSION=  2012001.000000000    
_WALLTOT= 0.2700000000000000    
_DATE=28-Sep-15
_LASTORB=UHFNAT
_MACHINE=Linux-2.6.32-504.30.3.el6.x86_64/soroban(x86_64) 64 bit serial version
_OUTPUT=/home/vincpohl/project.orbkit/molpro/h2o_uhf_sph.xml
_PGROUP=C2v
_TIME=17:27:33
_LIBMOL=/cm/shared/apps/molpro/2012.1.10openmp/molpros_2012_1_Linux_x86_64_i8/lib/
!VIBCNT=  0.000000000000000    
!RGHFCNT=  0.000000000000000    
!SURFREC=  0.000000000000000    
!POLYREC=  0.000000000000000    
!DIPREC=  0.000000000000000    
!VSCFREC=  0.000000000000000    
!VCIREC=  0.000000000000000    
!PVCIREC=  0.000000000000000    
!VMP2REC=  0.000000000000000    
!VMCSCFREC=  0.000000000000000    
!VMRCIREC=  0.000000000000000    
!VIBINFO=  0.000000000000000    
!GAREC=  0.000000000000000    
!SCFORB=  21002.00000000000    
!UNO_OCC=  3.000000000000000    
!UNO_CLOSED=  3.000000000000000    
!NEWMOL=-1.0000000000000000    
!NEWSYM=-1.0000000000000000    
_SLFILES=slscratch
_NGSSTO=  9.000000000000000    
_SIN=SIN
_COS=COS
_TAN=TAN
_ACOS=ACOS
_ASIN=ASIN
_ATAN=ATAN
_COSH=COSH
_SINH=SINH
_TANH=TANH
_ABS=ABS
_MOD=MOD
_ERF=ERF
_REFC=REFC
_ERFC=ERFC
_HYPOT=HYPOT
_J0=J0
_J1=J1
_JN=JN
_GAMMA=GAMMA
_LGAMMA=LGAMMA
_Y0=Y0
_Y1=Y1
_YN=YN
_EXP=EXP
_LOG=LOG
_LOG10=LOG10
_SQRT=SQRT
_INT=INT
_NINT=NINT
_MAX=MAX
_MIN=MIN
_COSMO=  0.000000000000000    
_COSMOIT=  0.000000000000000    
_COSMOES=  0.000000000000000    
_COSMOEDS=  0.000000000000000    
_COSMOEC=  0.000000000000000    
_COSMOEDCORR=  0.000000000000000    
_FEPSI= 1.0000000000000000    
_SL_IsMM=  0.000000000000000    
_SL_NSYM=  4.000000000000000    
_SL_System_BitSw=  0.000000000000000    
_SL_Unique_atoms=  0.000000000000000    
_SL_GRAD=  0.000000000000000    
_SL_MAXUPD_Hess=  5.000000000000000    
_SL_N_PRINT_COD=  5.000000000000000    
_SL_PRINT_CODES=  0.000000000000000    
_SL_BasType=  0.000000000000000    
_SL_Energy_Pred=  0.000000000000000    
_SL_New_Coords=  0.000000000000000    
_SL_Total_Nuclea=  0.000000000000000    
_SL_Highest_Mltp=  0.000000000000000    
_SL_Ref_Geom=  0.000000000000000    
_SL_Symmetry_ope= 1.0000000000000000    
_SL_agrad=  0.000000000000000    
_SL_GrdMax=  0.000000000000000    
_SL_GrdNorm=  0.000000000000000    
_SL_GrdRMS=  0.000000000000000    
!LATTICE=-1.0000000000000000    
!NEWLATTICE=  0.000000000000000    
!LATGRAD_VAR=FALSE
!SEW_LATTICE= 1.0000000000000000    
!LOCAL=  0.000000000000000    
!SAVEDOM=-1.0000000000000000    
!RESTDOM=-1.0000000000000000    
!SAVEDOM_HF=-1.0000000000000000    
!RESTDOM_HF=-1.0000000000000000    
!HESSREC=  0.000000000000000    
!FREQREC=  0.000000000000000    
!NMODREC=  0.000000000000000    
!GTASKS=  0.000000000000000    
!HTASKS=  0.000000000000000    
!THRCHG= 0.1000000000000000    
!DEBUG=-1.0000000000000000    
!CFIT_CPHF=  0.000000000000000    
!RDOMAUX_CPHF=  3.000000000000000    
!THRAO_CPHF= 0.1000000000000000E-09
!THRMO_CPHF= 0.1000000000000000E-08
!THROV_CPHF= 0.1000000000000000E-11
!THRSW_CPHF= 0.1000000000000000E-09
!THRPROD_CPHF= 0.1000000000000000E-08
!THRAOPR_CPHF= 0.1000000000000000E-11
!CFIT_SCFGRD=  0.000000000000000    
!RDOMAUX_SCFGRD=  5.000000000000000    
!THRAO_SCFGRD= 0.1000000000000000E-09
!THRMO_SCFGRD= 0.1000000000000000E-08
!THROV_SCFGRD= 0.1000000000000000E-11
!THRSW_SCFGRD= 0.1000000000000000E-09
!THRPROD_SCFGRD= 0.1000000000000000E-08
!THRAOPR_SCFGRD= 0.1000000000000000E-11
!LOCFIT_SCF=  0.000000000000000    
!LOCFIT_MP2=-1.0000000000000000    
_RIDOM=  0.000000000000000    
!CC2_METHOD=  0.000000000000000    
_BASIS2006=FALSE
_SVDDEL=-1.0000000000000000    
_SVDDELA=-1.0000000000000000    
_SVDDELP=-1.0000000000000000    
_SVDDELF=-1.0000000000000000    
_SVDDELS=-1.0000000000000000    
_SVDDEL_ABS=-1.0000000000000000    
_SVDDELA_ABS=-1.0000000000000000    
_SVDDELP_ABS=-1.0000000000000000    
_SVDDELF_ABS=-1.0000000000000000    
_SVDDELS_ABS=-1.0000000000000000    
_MAXBASIS=  0.000000000000000    
!OPT_CONICAL=  0.000000000000000    
!CLEARSP_JGRID=  0.000000000000000    
_4EXT_NDISKS= 1.0000000000000000    
!ZMP=  0.000000000000000    
_MAXIT_ZMP=  500.0000000000000    
_MAXDIS_ZMP= 100.00000000000000    
_ACCU_ZMP=  14.00000000000000    
_SHIFTA_ZMP=-100.00000000000000    
!EMBEDFLAG= 1.0000000000000000    
!EMBED=FALSE
!EMBED_F12=FALSE
!EMBEDNUC=  0.000000000000000    
_EMBEDENERGY=  0.000000000000000    
_KSPACETIME=  0.000000000000000    
_RSPACETIME=  0.000000000000000    
!EMBED_DFC=FALSE
!NUM_VOIDS=  0.000000000000000    
_IBODY=  0.000000000000000    
_EMBE_TOTAL=  0.000000000000000    
_EMBE_HF=  0.000000000000000    
_EMBE_CORR=  0.000000000000000    
!EDFT=  0.000000000000000    
_IFASTLATGRAD=  0.000000000000000    
_SINDEX=  0.000000000000000    
GEOMTYP=XYZ
GX1=  0.000000000000000    
GY1=-0.8901392951000000    
GZ1= 0.5586943229000001    
GX2=  0.000000000000000    
GY2=  0.000000000000000    
GZ2=-0.7039393419999999E-01
GX3=  0.000000000000000    
GY3= 0.8901392951000000    
GZ3= 0.5586943229000001    
MD=h2o_uhf_sph.molden
[Atoms] Angs
H     1    1         0.0000000000       -0.8901392951        0.5586943229
O     2    8         0.0000000000        0.0000000000       -0.0703939342
H     3    1         0.0000000000        0.8901392951        0.5586943229
[GTO]
  1 0
 s    4  1.00
  0.1301000000D+02  0.1968498999D-01
  0.1962000000D+01  0.1379769298D+00
  0.4446000000D+00  0.4781477569D+00
  0.1220000000D+00  0.5012397451D+00
 s    4  1.00
  0.1301000000D+02  0.0000000000D+00
  0.1962000000D+01  0.0000000000D+00
  0.4446000000D+00  0.0000000000D+00
  0.1220000000D+00  0.1000000000D+01
 p    1  1.00
  0.7270000000D+00  0.1000000000D+01
  
  3 0
 s    4  1.00
  0.1301000000D+02  0.1968498999D-01
  0.1962000000D+01  0.1379769298D+00
  0.4446000000D+00  0.4781477569D+00
  0.1220000000D+00  0.5012397451D+00
 s    4  1.00
  0.1301000000D+02  0.0000000000D+00
  0.1962000000D+01  0.0000000000D+00
  0.4446000000D+00  0.0000000000D+00
  0.1220000000D+00  0.1000000000D+01
 p    1  1.00
  0.7270000000D+00  0.1000000000D+01
  
  2 0
 s    9  1.00
  0.1172000000D+05  0.7100002503D-03
  0.1759000000D+04  0.5470001928D-02
  0.4008000000D+03  0.2783700981D-01
  0.1137000000D+03  0.1048000369D+00
  0.3703000000D+02  0.2830620998D+00
  0.1327000000D+02  0.4487191582D+00
  0.5025000000D+01  0.2709520955D+00
  0.1013000000D+01  0.1545800545D-01
  0.3023000000D+00 -0.2585000911D-02
 s    9  1.00
  0.1172000000D+05 -0.1600000154D-03
  0.1759000000D+04 -0.1263000121D-02
  0.4008000000D+03 -0.6267000602D-02
  0.1137000000D+03 -0.2571600247D-01
  0.3703000000D+02 -0.7092400682D-01
  0.1327000000D+02 -0.1654110159D+00
  0.5025000000D+01 -0.1169550112D+00
  0.1013000000D+01  0.5573680536D+00
  0.3023000000D+00  0.5727590551D+00
 s    9  1.00
  0.1172000000D+05  0.0000000000D+00
  0.1759000000D+04  0.0000000000D+00
  0.4008000000D+03  0.0000000000D+00
  0.1137000000D+03  0.0000000000D+00
  0.3703000000D+02  0.0000000000D+00
  0.1327000000D+02  0.0000000000D+00
  0.5025000000D+01  0.0000000000D+00
  0.1013000000D+01  0.0000000000D+00
  0.3023000000D+00  0.1000000000D+01
 p    4  1.00
  0.1770000000D+02  0.4301799242D-01
  0.3854000000D+01  0.2289129597D+00
  0.1046000000D+01  0.5087279104D+00
  0.2753000000D+00  0.4605309189D+00
 p    4  1.00
  0.1770000000D+02  0.0000000000D+00
  0.3854000000D+01  0.0000000000D+00
  0.1046000000D+01  0.0000000000D+00
  0.2753000000D+00  0.1000000000D+01
 d    1  1.00
  0.1185000000D+01  0.1000000000D+01
 
 
[MO]
 Sym=      1.1
 Ene=     -20.5692
 Spin= Alpha
 Occup=    1.000000
1 0.000467103871139
2 0.000237628779491
3 0.0
4 -0.000180732985159
5 0.000219161369034
6 0.000467103871139
7 0.000237628779491
8 0.0
9 0.000180732985159
10 0.000219161369034
11 1.00024541661023
12 0.001287442848275
13 -0.001491860432188
14 0.0
15 0.0
16 0.002086768555152
17 0.0
18 0.0
19 -0.001784263176080
20 0.000124611496024
21 -0.000077805851263
22 -0.000046805644761
23 0.0
24 0.0
25 0.0
 Sym=      2.1
 Ene=      -1.2772
 Spin= Alpha
 Occup=    1.000000
1 0.24185624674072
2 -0.10724199520958
3 0.0
4 0.027854662638503
5 -0.014958306218430
6 0.24185624674072
7 -0.10724199520958
8 0.0
9 -0.027854662638503
10 -0.014958306218430
11 -0.005832699287983
12 0.89517702293725
13 -0.054026061849197
14 0.0
15 0.0
16 0.076780816864172
17 0.0
18 0.0
19 -0.030574787388402
20 -0.003052820797842
21 0.002330357817951
22 0.000722462979891
23 0.0
24 0.0
25 0.0
 Sym=      1.3
 Ene=      -0.6416
 Spin= Alpha
 Occup=    1.000000
1 -0.51793978264749
2 0.14681496945806
3 0.0
4 -0.025627371100433
5 0.028202630132258
6 0.51793978264749
7 -0.14681496945806
8 0.0
9 -0.025627371100433
10 -0.028202630132258
11 0.0
12 0.0
13 0.0
14 0.0
15 0.68738365600911
16 0.0
17 0.0
18 -0.064675521239100
19 0.0
20 0.0
21 0.0
22 0.0
23 0.0
24 0.0
25 0.022663036276590
 Sym=      3.1
 Ene=      -0.5331
 Spin= Alpha
 Occup=    1.000000
1 0.33891598517807
2 -0.10035587543287
3 0.0
4 0.027082086277820
5 0.005564514661585
6 0.33891598517807
7 -0.10035587543287
8 0.0
9 -0.027082086277820
10 0.005564514661585
11 0.001130952670050
12 -0.26499712331090
13 -0.13898210233734
14 0.0
15 0.0
16 0.78450849252787
17 0.0
18 0.0
19 0.029201604065765
20 -0.012516929543488
21 -0.003124993798231
22 0.015641923341719
23 0.0
24 0.0
25 0.0
 Sym=      1.2
 Ene=      -0.4842
 Spin= Alpha
 Occup=    1.000000
1 0.0
2 0.0
3 0.025553493545159
4 0.0
5 0.0
6 0.0
7 0.0
8 0.025553493545159
9 0.0
10 0.0
11 0.0
12 0.0
13 0.0
14 0.92648344929373
15 0.0
16 0.0
17 0.073560439117270
18 0.0
19 0.0
20 0.0
21 0.0
22 0.0
23 0.0
24 0.015876977150156
25 0.0
 Sym=      4.1
 Ene=       0.1592
 Spin= Alpha
 Occup=    0.000000
1 0.17262738708638
2 0.67654020703096
3 0.0
4 0.003999958606130
5 -0.009879912256051
6 0.17262738708638
7 0.67654020703096
8 0.0
9 -0.003999958606130
10 -0.009879912256051
11 0.047030367297278
12 -0.16333702975726
13 -0.77145419647539
14 0.0
15 0.0
16 -0.34239441961830
17 0.0
18 0.0
19 -0.21189975437210
20 0.005524673373800
21 0.001107178447116
22 -0.006631851820916
23 0.0
24 0.0
25 0.0
 Sym=      2.3
 Ene=       0.2327
 Spin= Alpha
 Occup=    0.000000
1 0.10080230814766
2 1.13782244769057
3 0.0
4 0.011319155578087
5 -0.004392961321831
6 -0.10080230814766
7 -1.13782244769057
8 0.0
9 0.011319155578087
10 0.004392961321831
11 0.0
12 0.0
13 0.0
14 0.0
15 0.46962322289765
16 0.0
17 0.0
18 0.44861943918766
19 0.0
20 0.0
21 0.0
22 0.0
23 0.0
24 0.0
25 0.011447276215433
 Sym=      3.3
 Ene=       0.7252
 Spin= Alpha
 Occup=    0.000000
1 -1.58533248996508
2 1.62878169546744
3 0.0
4 0.044291294912256
5 -0.12385774997848
6 1.58533248996508
7 -1.62878169546744
8 0.0
9 0.044291294912256
10 0.12385774997848
11 0.0
12 0.0
13 0.0
14 0.0
15 -0.44178052628581
16 0.0
17 0.0
18 -0.044423488311190
19 0.0
20 0.0
21 0.0
22 0.0
23 0.0
24 0.0
25 0.093768265271705
 Sym=      5.1
 Ene=       0.7309
 Spin= Alpha
 Occup=    0.000000
1 -1.50063070030285
2 1.39180802007128
3 0.0
4 0.18724909292754
5 -0.019611448729851
6 -1.50063070030285
7 1.39180802007128
8 0.0
9 -0.18724909292754
10 -0.019611448729851
11 0.072336357323296
12 0.47014264793788
13 -0.57702436168869
14 0.0
15 0.0
16 0.41199279884474
17 0.0
18 0.0
19 -0.11994358364546
20 0.067860354415272
21 -0.078830891429848
22 0.010970537014576
23 0.0
24 0.0
25 0.0
 Sym=      6.1
 Ene=       1.1687
 Spin= Alpha
 Occup=    0.000000
1 -0.52403941686689
2 0.14824424738631
3 0.0
4 -0.052877160387116
5 0.29862682154014
6 -0.52403941686689
7 0.14824424738631
8 0.0
9 0.052877160387116
10 0.29862682154014
11 0.003618521985483
12 0.19610394545039
13 0.31752792046352
14 0.0
15 0.0
16 -1.16586994859504
17 0.0
18 0.0
19 1.61352735916109
20 -0.000302463671449
21 -0.025540131981794
22 0.025842595653243
23 0.0
24 0.0
25 0.0
 Sym=      2.2
 Ene=       1.1904
 Spin= Alpha
 Occup=    0.000000
1 0.0
2 0.0
3 0.11754140943171
4 0.0
5 0.0
6 0.0
7 0.0
8 0.11754140943171
9 0.0
10 0.0
11 0.0
12 0.0
13 0.0
14 -1.38094166712354
15 0.0
16 0.0
17 1.57287491598405
18 0.0
19 0.0
20 0.0
21 0.0
22 0.0
23 0.0
24 0.007141600589209
25 0.0
 Sym=      4.3
 Ene=       1.2593
 Spin= Alpha
 Occup=    0.000000
1 0.52486108362635
2 0.35816403910103
3 0.0
4 0.35992847784183
5 -0.064646069458811
6 -0.52486108362635
7 -0.35816403910103
8 0.0
9 0.35992847784183
10 0.064646069458811
11 0.0
12 0.0
13 0.0
14 0.0
15 -1.10800747391108
16 0.0
17 0.0
18 2.10406630982290
19 0.0
20 0.0
21 0.0
22 0.0
23 0.0
24 0.0
25 -0.004536835038188
 Sym=      1.4
 Ene=       1.4394
 Spin= Alpha
 Occup=    0.000000
1 0.0
2 0.0
3 0.67797422533090
4 0.0
5 0.0
6 0.0
7 0.0
8 -0.67797422533090
9 0.0
10 0.0
11 0.0
12 0.0
13 0.0
14 0.0
15 0.0
16 0.0
17 0.0
18 0.0
19 0.0
20 0.0
21 0.0
22 0.0
23 -0.14439960535062
24 0.0
25 0.0
 Sym=      7.1
 Ene=       1.5128
 Spin= Alpha
 Occup=    0.000000
1 0.39370348570972
2 -0.40356677218240
3 0.0
4 0.31474107961870
5 0.51215179763441
6 0.39370348570972
7 -0.40356677218240
8 0.0
9 -0.31474107961870
10 0.51215179763441
11 -0.27896617906670
12 -1.36194265371069
13 1.52600846919975
14 0.0
15 0.0
16 0.38834793096794
17 0.0
18 0.0
19 -0.85348850435174
20 -0.037179393429317
21 -0.10238735143890
22 0.13956674486821
23 0.0
24 0.0
25 0.0
 Sym=      3.2
 Ene=       1.6793
 Spin= Alpha
 Occup=    0.000000
1 0.0
2 0.0
3 0.74244133189349
4 0.0
5 0.0
6 0.0
7 0.0
8 0.74244133189349
9 0.0
10 0.0
11 0.0
12 0.0
13 0.0
14 0.27723420056441
15 0.0
16 0.0
17 -0.81576984731269
18 0.0
19 0.0
20 0.0
21 0.0
22 0.0
23 0.0
24 0.15866067756518
25 0.0
 Sym=      5.3
 Ene=       1.7915
 Spin= Alpha
 Occup=    0.000000
1 -0.67166840196225
2 0.22585591986790
3 0.0
4 0.37220768917311
5 0.66153387586655
6 0.67166840196225
7 -0.22585591986790
8 0.0
9 0.37220768917311
10 -0.66153387586655
11 0.0
12 0.0
13 0.0
14 0.0
15 0.34602316704473
16 0.0
17 0.0
18 -1.16789652765860
19 0.0
20 0.0
21 0.0
22 0.0
23 0.0
24 0.0
25 0.018829331031597
 Sym=      8.1
 Ene=       1.8975
 Spin= Alpha
 Occup=    0.000000
1 -0.92844219868263
2 0.16856912979566
3 0.0
4 -0.24393837739373
5 -0.18127365250228
6 -0.92844219868263
7 0.16856912979566
8 0.0
9 0.24393837739373
10 -0.18127365250228
11 -0.72587931655885
12 -3.22751899842182
13 4.23504487415363
14 0.0
15 0.0
16 -0.30089754014703
17 0.0
18 0.0
19 1.01214042278112
20 0.14169451611982
21 -0.021099592840599
22 -0.12059492327922
23 0.0
24 0.0
25 0.0
 Sym=      6.3
 Ene=       2.1796
 Spin= Alpha
 Occup=    0.000000
1 0.24910281228053
2 0.21526123870897
3 0.0
4 0.63582468000109
5 -0.53801703397482
6 -0.24910281228053
7 -0.21526123870897
8 0.0
9 0.63582468000109
10 0.53801703397482
11 0.0
12 0.0
13 0.0
14 0.0
15 0.98513722138816
16 0.0
17 0.0
18 -0.20877984987285
19 0.0
20 0.0
21 0.0
22 0.0
23 0.0
24 0.0
25 -0.11675345466303
 Sym=      9.1
 Ene=       2.2145
 Spin= Alpha
 Occup=    0.000000
1 0.73507297048207
2 -0.11321240417594
3 0.0
4 0.81459289884588
5 -0.42224382666506
6 0.73507297048207
7 -0.11321240417594
8 0.0
9 -0.81459289884588
10 -0.42224382666506
11 0.071173880360872
12 -0.022975949505788
13 -1.31402223937782
14 0.0
15 0.0
16 -0.69465953433521
17 0.0
18 0.0
19 -0.079503239568515
20 -0.21250595583528
21 0.13470632776956
22 0.077799628065725
23 0.0
24 0.0
25 0.0
 Sym=      4.2
 Ene=       3.1608
 Spin= Alpha
 Occup=    0.000000
1 0.0
2 0.0
3 -0.29171686683816
4 0.0
5 0.0
6 0.0
7 0.0
8 -0.29171686683816
9 0.0
10 0.0
11 0.0
12 0.0
13 0.0
14 -0.071868777561099
15 0.0
16 0.0
17 0.24700214035856
18 0.0
19 0.0
20 0.0
21 0.0
22 0.0
23 0.0
24 1.01096671633689
25 0.0
 Sym=      2.4
 Ene=       3.2339
 Spin= Alpha
 Occup=    0.000000
1 0.0
2 0.0
3 0.29911740350913
4 0.0
5 0.0
6 0.0
7 0.0
8 -0.29911740350913
9 0.0
10 0.0
11 0.0
12 0.0
13 0.0
14 0.0
15 0.0
16 0.0
17 0.0
18 0.0
19 0.0
20 0.0
21 0.0
22 0.0
23 1.02929291008810
24 0.0
25 0.0
 Sym=     10.1
 Ene=       3.3114
 Spin= Alpha
 Occup=    0.000000
1 -0.36534500229426
2 0.14317000431939
3 0.0
4 -0.31019662785143
5 -0.24021814820102
6 -0.36534500229426
7 0.14317000431939
8 0.0
9 0.31019662785143
10 -0.24021814820102
11 -0.084825078111492
12 -0.30944639046258
13 0.62462089437955
14 0.0
15 0.0
16 -0.048515766607962
17 0.0
18 0.0
19 0.43441012484666
20 -0.47806043544233
21 -0.54877638408832
22 1.02683681953065
23 0.0
24 0.0
25 0.0
 Sym=     11.1
 Ene=       3.7670
 Spin= Alpha
 Occup=    0.000000
1 1.38092157305722
2 -0.50949812898522
3 0.0
4 0.56830037447683
5 -0.41251632188358
6 1.38092157305722
7 -0.50949812898522
8 0.0
9 -0.56830037447683
10 -0.41251632188358
11 0.27077014854013
12 0.89361771895643
13 -2.30580382376468
14 0.0
15 0.0
16 -0.27796533206813
17 0.0
18 0.0
19 -0.58486463692162
20 0.98480098384321
21 -0.98101196985901
22 -0.003789013984194
23 0.0
24 0.0
25 0.0
 Sym=      7.3
 Ene=       3.9736
 Spin= Alpha
 Occup=    0.000000
1 1.24045438925739
2 -0.36915005989418
3 0.0
4 0.53298899457660
5 -0.40326161687428
6 -1.24045438925739
7 0.36915005989418
8 0.0
9 0.53298899457660
10 0.40326161687428
11 0.0
12 0.0
13 0.0
14 0.0
15 0.31520256566766
16 0.0
17 0.0
18 0.86222342340623
19 0.0
20 0.0
21 0.0
22 0.0
23 0.0
24 0.0
25 1.24029840044740
[Molden Format]
[Molpro variables]
_NUMVAR=  783.0000000000000    
_AVOGAD= 0.6022136736000000E+24
_BOLTZ= 0.1380658000000000E-22
_CLIGHT=  29979245800.00000    
_EV2006= 0.3674930886769165E-01
_EV= 0.3674932534394180E-01
_ENULL= 0.8854187817000000E-11
_KJOULE= 0.3808798324128737E-03
_KJOULE/MOL= 0.3808798324128737E-03
_CM= 0.4556335267302901E-05
_CM-1= 0.4556335267302901E-05
_DEB2SI= 0.3335641000000000E-29
_AMU2AU=  1822.888390000000    
_KCAL= 0.1593601117815568E-02
_KCAL/MOL= 0.1593601117815568E-02
_KELVIN2006= 0.3166828861084835E-05
_KELVIN= 0.3166814820820034E-05
_JOULE= 0.4359748200000000E-17
_HERTZ2006= 0.1519829850815779E-15
_HERTZ= 0.1519829846011223E-15
_HZ2006= 0.1519829850815779E-15
_HZ= 0.1519829846011223E-15
_JPCAL=  4.184000000000000    
_PLANCK= 0.6626075540000000E-33
_TOA2006= 0.5291772490000000    
_TOA= 0.5291772090000000    
_TOANG2006= 0.5291772490000000    
_TOANG= 0.5291772090000000    
_TORAD= 0.1745329251994330E-01
_TOCM=  219474.6306700000    
_TODEBYE=  2.541580000000000    
_TOEV2006=  27.21139610000000    
_TOE= 0.4803242000000000E-09
_TOEV=  27.21138390000000    
_TOHERTZ2006=  6579683899900000.    
_TOHERTZ=  6579683920700000.    
_TOHZ2006=  6579683899900000.    
_TOHZ=  6579683920700000.    
_TOK2006=  315773.3000000000    
_TOK=  315774.7000000000    
_TOKCAL=  627.5096000000000    
_TOKELVIN2006=  315773.3000000000    
_TOKELVIN=  315774.7000000000    
_TOKJ=  2625.500000000000    
_TOKJOULE=  2625.500000000000    
_TOKG= 0.1660565586000000E-26
_ANG2006=  1.889725988578923    
_ANG=  1.889726131421507    
_ANGSTROM2006=  1.889725988578923    
_ANGSTROM=  1.889726131421507    
_RPAREF=  0.000000000000000    
_RPADISS=  0.000000000000000    
_IGNORE_UNDEF=  2.000000000000000    
_STRICTCHECK=  0.000000000000000    
_SEW_ONEEL=  0.000000000000000    
_CPPDONE=FALSE
_DKROLL_DONE=  0.000000000000000    
_FOCKDONE=TRUE
_GRADONE=FALSE
_HESSDONE=FALSE
_INTDONE=TRUE
_SCFDONE=TRUE
_MODUL_BLOCK=FALSE
_MODUL_CUDA=FALSE
_MODUL_SLATER=FALSE
_MODUL_MRCC=FALSE
_MODUL_NBO6=FALSE
_MODUL_NECI=TRUE
_MODUL_AIMS=TRUE
_MRCC_EXEC=
_FITC_AO_SAVED=FALSE
_FITC_MO_SAVED=FALSE
_SHARED_FS=TRUE
_LSTYP=SEWARD
_INTYP=INTS
_GEOMTYP=ZMAT
_GRADTYP=ALASKA
_DIRECT=FALSE
_DKHO=-1.0000000000000000    
_SYNCM=  0.000000000000000    
_BASIS=CC-PVDZ
_ZORIENT= 1.0000000000000000    
_NELEC= 10.000000000000000    
!SPIN=  0.000000000000000    
_QSDSTEP=  0.000000000000000    
_QSDIRC=  0.000000000000000    
_PROGRAM=UHF-SCF
_CPUSTEP= 0.1000000000000001E-01
_SYSSTEP= 0.1000000000000001E-01
_WALLSTEP= 0.3000000000000000E-01
!DFSCF=  0.000000000000000    
!SCSGRD=  0.000000000000000    
_BASINP=  610.0000000000000    
_CPUTOT= 0.1600000000000000    
_CPUSORT= 0.3000000000000000E-01
_SYSSORT= 0.2000000000000000E-01
_WALLSORT= 0.5000000074505806E-01
_DMX=  0.000000000000000    
_DMY=  0.000000000000000    
_DMZ= 0.8172586601014701    
_DMX_SCF=  0.000000000000000    
_DMY_SCF=  0.000000000000000    
_DMZ_SCF= 0.8172586601014701    
_EHOMO=-0.4841846481230775    
_ELUMO= 0.1592014854818433    
_ENERGY= -75.99204487445877    
_ENUC=  8.064982892813699    
_EPS1= -20.56924885374011    
_EPS2=-0.4841846481230775    
_EPS3=-0.6416239643677357    
_EPS4=  1.439361301041135    
_GRADEXFAC=  9999.000000000000    
_GRADMETHOD=  3.000000000000000    
_NMRMETHOD=  0.000000000000000    
!GRID_FREEZE=-1.0000000000000000    
_ITERATIONS=  11.00000000000000    
_LASTNELEC= 10.000000000000000    
_LASTSPIN=  0.000000000000000    
_LASTSYM= 1.0000000000000000    
_MPP_PROG=  0.000000000000000    
_NPROC_MPP= 1.0000000000000000    
_NPROC_MPPX= 1.0000000000000000    
_NPROC_SMP= 1.0000000000000000    
_NUMSTEP=  0.000000000000000    
_ORBITAL=  2100.200000000000    
_PI=  3.141592653589793    
_SEIG_MIN= 0.2095245689662176E-01
_SEWPROP=TRUE
_SSQUARED= 0.6217248937900877E-14
_STATUS= 1.0000000000000000    
_SYSTOT= 0.6000000000000000E-01
_VERSION=  2012001.000000000    
_WALLTOT= 0.2700000000000000    
_DATE=28-Sep-15
_LASTORB=UHFNAT
_MACHINE=Linux-2.6.32-504.30.3.el6.x86_64/soroban(x86_64) 64 bit serial version
_OUTPUT=/home/vincpohl/project.orbkit/molpro/h2o_uhf_sph.xml
_PGROUP=C2v
_TIME=17:27:33
_LIBMOL=/cm/shared/apps/molpro/2012.1.10openmp/molpros_2012_1_Linux_x86_64_i8/lib/
!VIBCNT=  0.000000000000000    
!RGHFCNT=  0.000000000000000    
!SURFREC=  0.000000000000000    
!POLYREC=  0.000000000000000    
!DIPREC=  0.000000000000000    
!VSCFREC=  0.000000000000000    
!VCIREC=  0.000000000000000    
!PVCIREC=  0.000000000000000    
!VMP2REC=  0.000000000000000    
!VMCSCFREC=  0.000000000000000    
!VMRCIREC=  0.000000000000000    
!VIBINFO=  0.000000000000000    
!GAREC=  0.000000000000000    
!SCFORB=  21002.00000000000    
!UNO_OCC=  3.000000000000000    
!UNO_CLOSED=  3.000000000000000    
!NEWMOL=-1.0000000000000000    
!NEWSYM=-1.0000000000000000    
_SLFILES=slscratch
_NGSSTO=  9.000000000000000    
_SIN=SIN
_COS=COS
_TAN=TAN
_ACOS=ACOS
_ASIN=ASIN
_ATAN=ATAN
_COSH=COSH
_SINH=SINH
_TANH=TANH
_ABS=ABS
_MOD=MOD
_ERF=ERF
_REFC=REFC
_ERFC=ERFC
_HYPOT=HYPOT
_J0=J0
_J1=J1
_JN=JN
_GAMMA=GAMMA
_LGAMMA=LGAMMA
_Y0=Y0
_Y1=Y1
_YN=YN
_EXP=EXP
_LOG=LOG
_LOG10=LOG10
_SQRT=SQRT
_INT=INT
_NINT=NINT
_MAX=MAX
_MIN=MIN
_COSMO=  0.000000000000000    
_COSMOIT=  0.000000000000000    
_COSMOES=  0.000000000000000    
_COSMOEDS=  0.000000000000000    
_COSMOEC=  0.000000000000000    
_COSMOEDCORR=  0.000000000000000    
_FEPSI= 1.0000000000000000    
_SL_IsMM=  0.000000000000000    
_SL_NSYM=  4.000000000000000    
_SL_System_BitSw=  0.000000000000000    
_SL_Unique_atoms=  0.000000000000000    
_SL_GRAD=  0.000000000000000    
_SL_MAXUPD_Hess=  5.000000000000000    
_SL_N_PRINT_COD=  5.000000000000000    
_SL_PRINT_CODES=  0.000000000000000    
_SL_BasType=  0.000000000000000    
_SL_Energy_Pred=  0.000000000000000    
_SL_New_Coords=  0.000000000000000    
_SL_Total_Nuclea=  0.000000000000000    
_SL_Highest_Mltp=  0.000000000000000    
_SL_Ref_Geom=  0.000000000000000    
_SL_Symmetry_ope= 1.0000000000000000    
_SL_agrad=  0.000000000000000    
_SL_GrdMax=  0.000000000000000    
_SL_GrdNorm=  0.000000000000000    
_SL_GrdRMS=  0.000000000000000    
!LATTICE=-1.0000000000000000    
!NEWLATTICE=  0.000000000000000    
!LATGRAD_VAR=FALSE
!SEW_LATTICE= 1.0000000000000000    
!LOCAL=  0.000000000000000    
!SAVEDOM=-1.0000000000000000    
!RESTDOM=-1.0000000000000000    
!SAVEDOM_HF=-1.0000000000000000    
!RESTDOM_HF=-1.0000000000000000    
!HESSREC=  0.000000000000000    
!FREQREC=  0.000000000000000    
!NMODREC=  0.000000000000000    
!GTASKS=  0.000000000000000    
!HTASKS=  0.000000000000000    
!THRCHG= 0.1000000000000000    
!DEBUG=-1.0000000000000000    
!CFIT_CPHF=  0.000000000000000    
!RDOMAUX_CPHF=  3.000000000000000    
!THRAO_CPHF= 0.1000000000000000E-09
!THRMO_CPHF= 0.1000000000000000E-08
!THROV_CPHF= 0.1000000000000000E-11
!THRSW_CPHF= 0.1000000000000000E-09
!THRPROD_CPHF= 0.1000000000000000E-08
!THRAOPR_CPHF= 0.1000000000000000E-11
!CFIT_SCFGRD=  0.000000000000000    
!RDOMAUX_SCFGRD=  5.000000000000000    
!THRAO_SCFGRD= 0.1000000000000000E-09
!THRMO_SCFGRD= 0.1000000000000000E-08
!THROV_SCFGRD= 0.1000000000000000E-11
!THRSW_SCFGRD= 0.1000000000000000E-09
!THRPROD_SCFGRD= 0.1000000000000000E-08
!THRAOPR_SCFGRD= 0.1000000000000000E-11
!LOCFIT_SCF=  0.000000000000000    
!LOCFIT_MP2=-1.0000000000000000    
_RIDOM=  0.000000000000000    
!CC2_METHOD=  0.000000000000000    
_BASIS2006=FALSE
_SVDDEL=-1.0000000000000000    
_SVDDELA=-1.0000000000000000    
_SVDDELP=-1.0000000000000000    
_SVDDELF=-1.0000000000000000    
_SVDDELS=-1.0000000000000000    
_SVDDEL_ABS=-1.0000000000000000    
_SVDDELA_ABS=-1.0000000000000000    
_SVDDELP_ABS=-1.0000000000000000    
_SVDDELF_ABS=-1.0000000000000000    
_SVDDELS_ABS=-1.0000000000000000    
_MAXBASIS=  0.000000000000000    
!OPT_CONICAL=  0.000000000000000    
!CLEARSP_JGRID=  0.000000000000000    
_4EXT_NDISKS= 1.0000000000000000    
!ZMP=  0.000000000000000    
_MAXIT_ZMP=  500.0000000000000    
_MAXDIS_ZMP= 100.00000000000000    
_ACCU_ZMP=  14.00000000000000    
_SHIFTA_ZMP=-100.00000000000000    
!EMBEDFLAG= 1.0000000000000000    
!EMBED=FALSE
!EMBED_F12=FALSE
!EMBEDNUC=  0.000000000000000    
_EMBEDENERGY=  0.000000000000000    
_KSPACETIME=  0.000000000000000    
_RSPACETIME=  0.000000000000000    
!EMBED_DFC=FALSE
!NUM_VOIDS=  0.000000000000000    
_IBODY=  0.000000000000000    
_EMBE_TOTAL=  0.000000000000000    
_EMBE_HF=  0.000000000000000    
_EMBE_CORR=  0.000000000000000    
!EDFT=  0.000000000000000    
_IFASTLATGRAD=  0.000000000000000    
_SINDEX=  0.000000000000000    
GEOMTYP=XYZ
GX1=  0.000000000000000    
GY1=-0.8901392951000000    
GZ1= 0.5586943229000001    
GX2=  0.000000000000000    
GY2=  0.000000000000000    
GZ2=-0.7039393419999999E-01
GX3=  0.000000000000000    
GY3= 0.8901392951000000    
GZ3= 0.5586943229000001    
MD=h2o_uhf_sph.molden
[Atoms] Angs
H     1    1         0.0000000000       -0.8901392951        0.5586943229
O     2    8         0.0000000000        0.0000000000       -0.0703939342
H     3    1         0.0000000000        0.8901392951        0.5586943229
[GTO]
  1 0
 s    4  1.00
  0.1301000000D+02  0.1968498999D-01
  0.1962000000D+01  0.1379769298D+00
  0.4446000000D+00  0.4781477569D+00
  0.1220000000D+00  0.5012397451D+00
 s    4  1.00