[Molden Format]
[Molpro variables]
_NUMVAR=  783.0000000000000    
_AVOGAD= 0.6022136736000000E+24
_BOLTZ= 0.1380658000000000E-22
_CLIGHT=  29979245800.00000    
_EV2006= 0.3674930886769165E-01
_EV= 0.3674932534394180E-01
_ENULL= 0.8854187817000000E-11
_KJOULE= 0.3808798324128737E-03
_KJOULE/MOL= 0.3808798324128737E-03
_CM= 0.4556335267302901E-05
_CM-1= 0.4556335267302901E-05
_DEB2SI= 0.3335641000000000E-29
_AMU2AU=  1822.888390000000    
_KCAL= 0.1593601117815568E-02
_KCAL/MOL= 0.1593601117815568E-02
_KELVIN2006= 0.3166828861084835E-05
_KELVIN= 0.3166814820820034E-05
_JOULE= 0.4359748200000000E-17
_HERTZ2006= 0.1519829850815779E-15
_HERTZ= 0.1519829846011223E-15
_HZ2006= 0.1519829850815779E-15
_HZ= 0.1519829846011223E-15
_JPCAL=  4.184000000000000    
_PLANCK= 0.6626075540000000E-33
_TOA2006= 0.5291772490000000    
_TOA= 0.5291772090000000    
_TOANG2006= 0.5291772490000000    
_TOANG= 0.5291772090000000    
_TORAD= 0.1745329251994330E-01
_TOCM=  219474.6306700000    
_TODEBYE=  2.541580000000000    
_TOEV2006=  27.21139610000000    
_TOE= 0.4803242000000000E-09
_TOEV=  27.21138390000000    
_TOHERTZ2006=  6579683899900000.    
_TOHERTZ=  6579683920700000.    
_TOHZ2006=  6579683899900000.    
_TOHZ=  6579683920700000.    
_TOK2006=  315773.3000000000    
_TOK=  315774.7000000000    
_TOKCAL=  627.5096000000000    
_TOKELVIN2006=  315773.3000000000    
_TOKELVIN=  315774.7000000000    
_TOKJ=  2625.500000000000    
_TOKJOULE=  2625.500000000000    
_TOKG= 0.1660565586000000E-26
_ANG2006=  1.889725988578923    
_ANG=  1.889726131421507    
_ANGSTROM2006=  1.889725988578923    
_ANGSTROM=  1.889726131421507    
_RPAREF=  0.000000000000000    
_RPADISS=  0.000000000000000    
_IGNORE_UNDEF=  2.000000000000000    
_STRICTCHECK=  0.000000000000000    
_SEW_ONEEL=  0.000000000000000    
_CPPDONE=FALSE
_DKROLL_DONE=  0.000000000000000    
_FOCKDONE=TRUE
_GRADONE=FALSE
_HESSDONE=FALSE
_INTDONE=TRUE
_SCFDONE=TRUE
_MODUL_BLOCK=FALSE
_MODUL_CUDA=FALSE
_MODUL_SLATER=FALSE
_MODUL_MRCC=FALSE
_MODUL_NBO6=FALSE
_MODUL_NECI=TRUE
_MODUL_AIMS=TRUE
_MRCC_EXEC=
_FITC_AO_SAVED=FALSE
_FITC_MO_SAVED=FALSE
_SHARED_FS=TRUE
_LSTYP=SEWARD
_INTYP=INTS
_GEOMTYP=ZMAT
_GRADTYP=ALASKA
_DIRECT=FALSE
_DKHO=-1.0000000000000000    
_SYNCM=  0.000000000000000    
_BASIS=CC-PVDZ
_ZORIENT= 1.0000000000000000    
_NELEC= 10.000000000000000    
!SPIN=  0.000000000000000    
_QSDSTEP=  0.000000000000000    
_QSDIRC=  0.000000000000000    
_PROGRAM=UHF-SCF
_CPUSTEP= 0.1000000000000001E-01
_SYSSTEP=  0.000000000000000    
_WALLSTEP= 0.2000000000000000E-01
!DFSCF=  0.000000000000000    
!SCSGRD=  0.000000000000000    
_BASINP=  610.0000000000000    
_CARTESIAN=TRUE
_CPUTOT= 0.1500000000000000    
_CPUSORT= 0.3000000000000000E-01
_SYSSORT= 0.2000000000000000E-01
_WALLSORT= 0.3999999910593033E-01
_DMX=  0.000000000000000    
_DMY=  0.000000000000000    
_DMZ= 0.8173937684284998    
_DMX_SCF=  0.000000000000000    
_DMY_SCF=  0.000000000000000    
_DMZ_SCF= 0.8173937684284998    
_EHOMO=-0.4846241969434822    
_ELUMO= 0.1569177154909468    
_ENERGY= -75.99239992084628    
_ENUC=  8.064982892813699    
_EPS1= -20.57047319494269    
_EPS2=-0.4846241969434831    
_EPS3=-0.6419800981916215    
_EPS4=  1.439173071019161    
_GRADEXFAC=  9999.000000000000    
_GRADMETHOD=  3.000000000000000    
_NMRMETHOD=  0.000000000000000    
!GRID_FREEZE=-1.0000000000000000    
_ITERATIONS=  11.00000000000000    
_LASTNELEC= 10.000000000000000    
_LASTSPIN=  0.000000000000000    
_LASTSYM= 1.0000000000000000    
_MPP_PROG=  0.000000000000000    
_NPROC_MPP= 1.0000000000000000    
_NPROC_MPPX= 1.0000000000000000    
_NPROC_SMP= 1.0000000000000000    
_NUMSTEP=  0.000000000000000    
_ORBITAL=  2100.200000000000    
_PI=  3.141592653589793    
_SEIG_MIN= 0.2064389216324539E-01
_SEWPROP=TRUE
_SSQUARED= 0.7993605777301127E-14
_STATUS= 1.0000000000000000    
_SYSTOT= 0.7000000000000001E-01
_VERSION=  2012001.000000000    
_WALLTOT= 0.2600000000000000    
_DATE=28-Sep-15
_LASTORB=UHFNAT
_MACHINE=Linux-2.6.32-504.30.3.el6.x86_64/soroban(x86_64) 64 bit serial version
_OUTPUT=/home/vincpohl/project.orbkit/molpro/h2o_uhf_cart.xml
_PGROUP=C2v
_TIME=17:45:03
_LIBMOL=/cm/shared/apps/molpro/2012.1.10openmp/molpros_2012_1_Linux_x86_64_i8/lib/
!VIBCNT=  0.000000000000000    
!RGHFCNT=  0.000000000000000    
!SURFREC=  0.000000000000000    
!POLYREC=  0.000000000000000    
!DIPREC=  0.000000000000000    
!VSCFREC=  0.000000000000000    
!VCIREC=  0.000000000000000    
!PVCIREC=  0.000000000000000    
!VMP2REC=  0.000000000000000    
!VMCSCFREC=  0.000000000000000    
!VMRCIREC=  0.000000000000000    
!VIBINFO=  0.000000000000000    
!GAREC=  0.000000000000000    
!SCFORB=  21002.00000000000    
!UNO_OCC=  3.000000000000000    
!UNO_CLOSED=  3.000000000000000    
!NEWMOL=-1.0000000000000000    
!NEWSYM=-1.0000000000000000    
_SLFILES=slscratch
_NGSSTO=  9.000000000000000    
_SIN=SIN
_COS=COS
_TAN=TAN
_ACOS=ACOS
_ASIN=ASIN
_ATAN=ATAN
_COSH=COSH
_SINH=SINH
_TANH=TANH
_ABS=ABS
_MOD=MOD
_ERF=ERF
_REFC=REFC
_ERFC=ERFC
_HYPOT=HYPOT
_J0=J0
_J1=J1
_JN=JN
_GAMMA=GAMMA
_LGAMMA=LGAMMA
_Y0=Y0
_Y1=Y1
_YN=YN
_EXP=EXP
_LOG=LOG
_LOG10=LOG10
_SQRT=SQRT
_INT=INT
_NINT=NINT
_MAX=MAX
_MIN=MIN
_COSMO=  0.000000000000000    
_COSMOIT=  0.000000000000000    
_COSMOES=  0.000000000000000    
_COSMOEDS=  0.000000000000000    
_COSMOEC=  0.000000000000000    
_COSMOEDCORR=  0.000000000000000    
_FEPSI= 1.0000000000000000    
_SL_IsMM=  0.000000000000000    
_SL_NSYM=  4.000000000000000    
_SL_System_BitSw=  0.000000000000000    
_SL_Unique_atoms=  0.000000000000000    
_SL_GRAD=  0.000000000000000    
_SL_MAXUPD_Hess=  5.000000000000000    
_SL_N_PRINT_COD=  5.000000000000000    
_SL_PRINT_CODES=  0.000000000000000    
_SL_BasType=  0.000000000000000    
_SL_Energy_Pred=  0.000000000000000    
_SL_New_Coords=  0.000000000000000    
_SL_Total_Nuclea=  0.000000000000000    
_SL_Highest_Mltp=  0.000000000000000    
_SL_Ref_Geom=  0.000000000000000    
_SL_Symmetry_ope= 1.0000000000000000    
_SL_agrad=  0.000000000000000    
_SL_GrdMax=  0.000000000000000    
_SL_GrdNorm=  0.000000000000000    
_SL_GrdRMS=  0.000000000000000    
!LATTICE=-1.0000000000000000    
!NEWLATTICE=  0.000000000000000    
!LATGRAD_VAR=FALSE
!SEW_LATTICE= 1.0000000000000000    
!LOCAL=  0.000000000000000    
!SAVEDOM=-1.0000000000000000    
!RESTDOM=-1.0000000000000000    
!SAVEDOM_HF=-1.0000000000000000    
!RESTDOM_HF=-1.0000000000000000    
!HESSREC=  0.000000000000000    
!FREQREC=  0.000000000000000    
!NMODREC=  0.000000000000000    
!GTASKS=  0.000000000000000    
!HTASKS=  0.000000000000000    
!THRCHG= 0.1000000000000000    
!DEBUG=-1.0000000000000000    
!CFIT_CPHF=  0.000000000000000    
!RDOMAUX_CPHF=  3.000000000000000    
!THRAO_CPHF= 0.1000000000000000E-09
!THRMO_CPHF= 0.1000000000000000E-08
!THROV_CPHF= 0.1000000000000000E-11
!THRSW_CPHF= 0.1000000000000000E-09
!THRPROD_CPHF= 0.1000000000000000E-08
!THRAOPR_CPHF= 0.1000000000000000E-11
!CFIT_SCFGRD=  0.000000000000000    
!RDOMAUX_SCFGRD=  5.000000000000000    
!THRAO_SCFGRD= 0.1000000000000000E-09
!THRMO_SCFGRD= 0.1000000000000000E-08
!THROV_SCFGRD= 0.1000000000000000E-11
!THRSW_SCFGRD= 0.1000000000000000E-09
!THRPROD_SCFGRD= 0.1000000000000000E-08
!THRAOPR_SCFGRD= 0.1000000000000000E-11
!LOCFIT_SCF=  0.000000000000000    
!LOCFIT_MP2=-1.0000000000000000    
_RIDOM=  0.000000000000000    
!CC2_METHOD=  0.000000000000000    
_BASIS2006=FALSE
_SVDDEL=-1.0000000000000000    
_SVDDELA=-1.0000000000000000    
_SVDDELP=-1.0000000000000000    
_SVDDELF=-1.0000000000000000    
_SVDDELS=-1.0000000000000000    
_SVDDEL_ABS=-1.0000000000000000    
_SVDDELA_ABS=-1.0000000000000000    
_SVDDELP_ABS=-1.0000000000000000    
_SVDDELF_ABS=-1.0000000000000000    
_SVDDELS_ABS=-1.0000000000000000    
_MAXBASIS=  0.000000000000000    
!OPT_CONICAL=  0.000000000000000    
!CLEARSP_JGRID=  0.000000000000000    
_4EXT_NDISKS= 1.0000000000000000    
!ZMP=  0.000000000000000    
_MAXIT_ZMP=  500.0000000000000    
_MAXDIS_ZMP= 100.00000000000000    
_ACCU_ZMP=  14.00000000000000    
_SHIFTA_ZMP=-100.00000000000000    
!EMBEDFLAG= 1.0000000000000000    
!EMBED=FALSE
!EMBED_F12=FALSE
!EMBEDNUC=  0.000000000000000    
_EMBEDENERGY=  0.000000000000000    
_KSPACETIME=  0.000000000000000    
_RSPACETIME=  0.000000000000000    
!EMBED_DFC=FALSE
!NUM_VOIDS=  0.000000000000000    
_IBODY=  0.000000000000000    
_EMBE_TOTAL=  0.000000000000000    
_EMBE_HF=  0.000000000000000    
_EMBE_CORR=  0.000000000000000    
!EDFT=  0.000000000000000    
_IFASTLATGRAD=  0.000000000000000    
_SINDEX=  0.000000000000000    
GEOMTYP=XYZ
GX1=  0.000000000000000    
GY1=-0.8901392951000000    
GZ1= 0.5586943229000001    
GX2=  0.000000000000000    
GY2=  0.000000000000000    
GZ2=-0.7039393419999999E-01
GX3=  0.000000000000000    
GY3= 0.8901392951000000    
GZ3= 0.5586943229000001    
MD=h2o_uhf_cart.molden
[Atoms] Angs
H     1    1         0.0000000000       -0.8901392951        0.5586943229
O     2    8         0.0000000000        0.0000000000       -0.0703939342
H     3    1         0.0000000000        0.8901392951        0.5586943229
[GTO]
  1 0
 s    4  1.00
  0.1301000000D+02  0.1968498999D-01
  0.1962000000D+01  0.1379769298D+00
  0.4446000000D+00  0.4781477569D+00
  0.1220000000D+00  0.5012397451D+00
 s    4  1.00
  0.1301000000D+02  0.0000000000D+00
  0.1962000000D+01  0.0000000000D+00
  0.4446000000D+00  0.0000000000D+00
  0.1220000000D+00  0.1000000000D+01
 p    1  1.00
  0.7270000000D+00  0.1000000000D+01
  
  3 0
 s    4  1.00
  0.1301000000D+02  0.1968498999D-01
  0.1962000000D+01  0.1379769298D+00
  0.4446000000D+00  0.4781477569D+00
  0.1220000000D+00  0.5012397451D+00
 s    4  1.00
  0.1301000000D+02  0.0000000000D+00
  0.1962000000D+01  0.0000000000D+00
  0.4446000000D+00  0.0000000000D+00
  0.1220000000D+00  0.1000000000D+01
 p    1  1.00
  0.7270000000D+00  0.1000000000D+01
  
  2 0
 s    9  1.00
  0.1172000000D+05  0.7100002503D-03
  0.1759000000D+04  0.5470001928D-02
  0.4008000000D+03  0.2783700981D-01
  0.1137000000D+03  0.1048000369D+00
  0.3703000000D+02  0.2830620998D+00
  0.1327000000D+02  0.4487191582D+00
  0.5025000000D+01  0.2709520955D+00
  0.1013000000D+01  0.1545800545D-01
  0.3023000000D+00 -0.2585000911D-02
 s    9  1.00
  0.1172000000D+05 -0.1600000154D-03
  0.1759000000D+04 -0.1263000121D-02
  0.4008000000D+03 -0.6267000602D-02
  0.1137000000D+03 -0.2571600247D-01
  0.3703000000D+02 -0.7092400682D-01
  0.1327000000D+02 -0.1654110159D+00
  0.5025000000D+01 -0.1169550112D+00
  0.1013000000D+01  0.5573680536D+00
  0.3023000000D+00  0.5727590551D+00
 s    9  1.00
  0.1172000000D+05  0.0000000000D+00
  0.1759000000D+04  0.0000000000D+00
  0.4008000000D+03  0.0000000000D+00
  0.1137000000D+03  0.0000000000D+00
  0.3703000000D+02  0.0000000000D+00
  0.1327000000D+02  0.0000000000D+00
  0.5025000000D+01  0.0000000000D+00
  0.1013000000D+01  0.0000000000D+00
  0.3023000000D+00  0.1000000000D+01
 p    4  1.00
  0.1770000000D+02  0.4301799242D-01
  0.3854000000D+01  0.2289129597D+00
  0.1046000000D+01  0.5087279104D+00
  0.2753000000D+00  0.4605309189D+00
 p    4  1.00
  0.1770000000D+02  0.0000000000D+00
  0.3854000000D+01  0.0000000000D+00
  0.1046000000D+01  0.0000000000D+00
  0.2753000000D+00  0.1000000000D+01
 d    1  1.00
  0.1185000000D+01  0.1000000000D+01
 
 
[MO]
 Sym=      1.1
 Ene=     -20.5705
 Spin= Alpha
 Occup=    1.000000
1 0.000347674348278
2 0.000071867171660
3 0.0
4 -0.000137855881992
5 0.000162655404881
6 0.000347674348278
7 0.000071867171660
8 0.0
9 0.000137855881992
10 0.000162655404881
11 1.00037141617767
12 0.003252031339122
13 -0.000809140240437
14 0.0
15 0.0
16 0.002008320467242
17 0.0
18 0.0
19 -0.001572737861489
20 -0.001008400044291
21 -0.001216676570397
22 -0.001172102575363
23 0.0
24 0.0
25 0.0
 Sym=      2.1
 Ene=      -1.2776
 Spin= Alpha
 Occup=    1.000000
1 0.24232424097707
2 -0.10680922574913
3 0.0
4 0.027810168974328
5 -0.014869143562018
6 0.24232424097707
7 -0.10680922574913
8 0.0
9 -0.027810168974328
10 -0.014869143562018
11 -0.005749850952736
12 0.89283032889466
13 -0.057293802619292
14 0.0
15 0.0
16 0.076870878791234
17 0.0
18 0.0
19 -0.031188281415585
20 -0.000845296267401
21 0.004543408084438
22 0.002908933960888
23 0.0
24 0.0
25 0.0
 Sym=      1.3
 Ene=      -0.6420
 Spin= Alpha
 Occup=    1.000000
1 -0.51784591158006
2 0.14681640776477
3 0.0
4 -0.025638010774279
5 0.028188367228683
6 0.51784591158006
7 -0.14681640776477
8 0.0
9 -0.025638010774279
10 -0.028188367228683
11 0.0
12 0.0
13 0.0
14 0.0
15 0.68761224390803
16 0.0
17 0.0
18 -0.064805387006295
19 0.0
20 0.0
21 0.0
22 0.0
23 0.0
24 0.0
25 0.022654800258320
 Sym=      3.1
 Ene=      -0.5334
 Spin= Alpha
 Occup=    1.000000
1 0.34094344737526
2 -0.098431500581514
3 0.0
4 0.026914189189278
5 0.005828898364421
6 0.34094344737526
7 -0.098431500581514
8 0.0
9 -0.026914189189278
10 0.005828898364421
11 0.001804323150853
12 -0.27174073197696
13 -0.15295584442353
14 0.0
15 0.0
16 0.78471317302780
17 0.0
18 0.0
19 0.026941463708637
20 -0.004785541282054
21 0.004732980173935
22 0.023364381306261
23 0.0
24 0.0
25 0.0
 Sym=      1.2
 Ene=      -0.4846
 Spin= Alpha
 Occup=    1.000000
1 0.0
2 0.0
3 0.025528398036994
4 0.0
5 0.0
6 0.0
7 0.0
8 0.025528398036994
9 0.0
10 0.0
11 0.0
12 0.0
13 0.0
14 0.92664405997198
15 0.0
16 0.0
17 0.073385617431496
18 0.0
19 0.0
20 0.0
21 0.0
22 0.0
23 0.0
24 0.015849411787516
25 0.0
 Sym=      4.1
 Ene=       0.1569
 Spin= Alpha
 Occup=    0.000000
1 0.17887126458185
2 0.68300025747474
3 0.0
4 0.003417305435713
5 -0.008921622488245
6 0.17887126458185
7 0.68300025747474
8 0.0
9 -0.003417305435713
10 -0.008921622488245
11 0.051320156275750
12 -0.17984676253056
13 -0.83242205359359
14 0.0
15 0.0
16 -0.34148592619682
17 0.0
18 0.0
19 -0.21951566674133
20 0.035096083813303
21 0.031113796876895
22 0.023053694079619
23 0.0
24 0.0
25 0.0
 Sym=      2.3
 Ene=       0.2325
 Spin= Alpha
 Occup=    0.000000
1 0.10130993937290
2 1.13731667833838
3 0.0
4 0.011313970677164
5 -0.004354454919713
6 -0.10130993937290
7 -1.13731667833838
8 0.0
9 0.011313970677164
10 0.004354454919713
11 0.0
12 0.0
13 0.0
14 0.0
15 0.46972877327972
16 0.0
17 0.0
18 0.44854410507539
19 0.0
20 0.0
21 0.0
22 0.0
23 0.0
24 0.0
25 0.011408288613559
 Sym=      3.3
 Ene=       0.7250
 Spin= Alpha
 Occup=    0.000000
1 -1.58538672276527
2 1.62907770157835
3 0.0
4 0.044234763866817
5 -0.12383677986308
6 1.58538672276527
7 -1.62907770157835
8 0.0
9 0.044234763866817
10 0.12383677986308
11 0.0
12 0.0
13 0.0
14 0.0
15 -0.44150500500427
16 0.0
17 0.0
18 -0.044502032544995
19 0.0
20 0.0
21 0.0
22 0.0
23 0.0
24 0.0
25 0.093795636389698
 Sym=      5.1
 Ene=       0.7306
 Spin= Alpha
 Occup=    0.000000
1 -1.49735067681284
2 1.39312718510821
3 0.0
4 0.18679157093897
5 -0.019420651839190
6 -1.49735067681284
7 1.39312718510821
8 0.0
9 -0.18679157093897
10 -0.019420651839190
11 0.075338622464740
12 0.47093872542376
13 -0.60683287717643
14 0.0
15 0.0
16 0.41161531138765
17 0.0
18 0.0
19 -0.12125249036380
20 0.078751358056419
21 -0.067513231177772
22 0.022028117685831
23 0.0
24 0.0
25 0.0
 Sym=      6.1
 Ene=       1.1660
 Spin= Alpha
 Occup=    0.000000
1 -0.50204959880706
2 0.15500097951668
3 0.0
4 -0.056810994353221
5 0.29134265613028
6 -0.50204959880706
7 0.15500097951668
8 0.0
9 0.056810994353221
10 0.29134265613028
11 0.026149140674831
12 0.25201766520773
13 0.14189597403673
14 0.0
15 0.0
16 -1.16356129150394
17 0.0
18 0.0
19 1.60022101451698
20 0.037002660570954
21 0.016015830404488
22 0.063283374474356
23 0.0
24 0.0
25 0.0
 Sym=      2.2
 Ene=       1.1901
 Spin= Alpha
 Occup=    0.000000
1 0.0
2 0.0
3 0.11740004104020
4 0.0
5 0.0
6 0.0
7 0.0
8 0.11740004104020
9 0.0
10 0.0
11 0.0
12 0.0
13 0.0
14 -1.38088517859194
15 0.0
16 0.0
17 1.57304376241968
18 0.0
19 0.0
20 0.0
21 0.0
22 0.0
23 0.0
24 0.007092531471820
25 0.0
 Sym=      4.3
 Ene=       1.2590
 Spin= Alpha
 Occup=    0.000000
1 0.52467623169243
2 0.35835952414844
3 0.0
4 0.35982444420733
5 -0.064691895249879
6 -0.52467623169243
7 -0.35835952414844
8 0.0
9 0.35982444420733
10 0.064691895249879
11 0.0
12 0.0
13 0.0
14 0.0
15 -1.10810102954083
16 0.0
17 0.0
18 2.10420933340337
19 0.0
20 0.0
21 0.0
22 0.0
23 0.0
24 0.0
25 -0.004551977215489
 Sym=      1.4
 Ene=       1.4392
 Spin= Alpha
 Occup=    0.000000
1 0.0
2 0.0
3 0.67796492901338
4 0.0
5 0.0
6 0.0
7 0.0
8 -0.67796492901338
9 0.0
10 0.0
11 0.0
12 0.0
13 0.0
14 0.0
15 0.0
16 0.0
17 0.0
18 0.0
19 0.0
20 0.0
21 0.0
22 0.0
23 -0.14443159371285
24 0.0
25 0.0
 Sym=      7.1
 Ene=       1.4699
 Spin= Alpha
 Occup=    0.000000
1 0.14732540714421
2 -0.36127238503141
3 0.0
4 0.26262069861049
5 0.46052712786828
6 0.14732540714421
7 -0.36127238503141
8 0.0
9 -0.26262069861049
10 0.46052712786828
11 -0.39907341653391
12 -1.67504380919197
13 2.45032672531297
14 0.0
15 0.0
16 0.25663378680899
17 0.0
18 0.0
19 -0.52896706978859
20 -0.18688710466160
21 -0.27354185503633
22 -0.057277373790727
23 0.0
24 0.0
25 0.0
 Sym=      3.2
 Ene=       1.6790
 Spin= Alpha
 Occup=    0.000000
1 0.0
2 0.0
3 0.74245141982618
4 0.0
5 0.0
6 0.0
7 0.0
8 0.74245141982618
9 0.0
10 0.0
11 0.0
12 0.0
13 0.0
14 0.27697390269762
15 0.0
16 0.0
17 -0.81543847993452
18 0.0
19 0.0
20 0.0
21 0.0
22 0.0
23 0.0
24 0.15871182089571
25 0.0
 Sym=      8.1
 Ene=       1.7691
 Spin= Alpha
 Occup=    0.000000
1 -1.02259828002581
2 0.23848448370018
3 0.0
4 -0.29006991425369
5 -0.29746545501105
6 -1.02259828002581
7 0.23848448370018
8 0.0
9 0.29006991425369
10 -0.29746545501105
11 -0.60458872631186
12 -2.36254558299372
13 3.84754107102935
14 0.0
15 0.0
16 -0.43247510645043
17 0.0
18 0.0
19 1.25144875261217
20 -0.10985139435186
21 -0.23199341400041
22 -0.38149744768067
23 0.0
24 0.0
25 0.0
 Sym=      5.3
 Ene=       1.7913
 Spin= Alpha
 Occup=    0.000000
1 -0.67158934210960
2 0.22588035391812
3 0.0
4 0.37226245175707
5 0.66151855975658
6 0.67158934210960
7 -0.22588035391812
8 0.0
9 0.37226245175707
10 -0.66151855975658
11 0.0
12 0.0
13 0.0
14 0.0
15 0.34588351017350
16 0.0
17 0.0
18 -1.16762124684100
19 0.0
20 0.0
21 0.0
22 0.0
23 0.0
24 0.0
25 0.018853336025202
 Sym=      6.3
 Ene=       2.1793
 Spin= Alpha
 Occup=    0.000000
1 0.24903568571462
2 0.21534003650912
3 0.0
4 0.63582711563988
5 -0.53800666275243
6 -0.24903568571462
7 -0.21534003650912
8 0.0
9 0.63582711563988
10 0.53800666275243
11 0.0
12 0.0
13 0.0
14 0.0
15 0.98498849647268
16 0.0
17 0.0
18 -0.20868239538848
19 0.0
20 0.0
21 0.0
22 0.0
23 0.0
24 0.0
25 -0.11681240015569
 Sym=      9.1
 Ene=       2.2141
 Spin= Alpha
 Occup=    0.000000
1 0.74646176170694
2 -0.11516658399850
3 0.0
4 0.81738934918097
5 -0.42117886146380
6 0.74646176170694
7 -0.11516658399850
8 0.0
9 -0.81738934918097
10 -0.42117886146380
11 0.085110384916363
12 0.052408117216679
13 -1.38152533631911
14 0.0
15 0.0
16 -0.69243653902735
17 0.0
18 0.0
19 -0.089789628706976
20 -0.22562367382391
21 0.12539592083731
22 0.069297117197216
23 0.0
24 0.0
25 0.0
 Sym=      4.2
 Ene=       3.1604
 Spin= Alpha
 Occup=    0.000000
1 0.0
2 0.0
3 -0.29175031468828
4 0.0
5 0.0
6 0.0
7 0.0
8 -0.29175031468828
9 0.0
10 0.0
11 0.0
12 0.0
13 0.0
14 -0.071887132729595
15 0.0
16 0.0
17 0.24707306362703
18 0.0
19 0.0
20 0.0
21 0.0
22 0.0
23 0.0
24 1.01095946657624
25 0.0
 Sym=      2.4
 Ene=       3.2335
 Spin= Alpha
 Occup=    0.000000
1 0.0
2 0.0
3 0.29913847349172
4 0.0
5 0.0
6 0.0
7 0.0
8 -0.29913847349172
9 0.0
10 0.0
11 0.0
12 0.0
13 0.0
14 0.0
15 0.0
16 0.0
17 0.0
18 0.0
19 0.0
20 0.0
21 0.0
22 0.0
23 1.02928842193071
24 0.0
25 0.0
 Sym=     10.1
 Ene=       3.3107
 Spin= Alpha
 Occup=    0.000000
1 -0.36660369657201
2 0.14261685046494
3 0.0
4 -0.31063536683925
5 -0.23968605242723
6 -0.36660369657201
7 0.14261685046494
8 0.0
9 0.31063536683925
10 -0.23968605242723
11 -0.078721569503343
12 -0.26114924470558
13 0.61158119479551
14 0.0
15 0.0
16 -0.048515401755336
17 0.0
18 0.0
19 0.43570912604767
20 -0.49741255044883
21 -0.56204084511602
22 1.01114599697873
23 0.0
24 0.0
25 0.0
 Sym=     11.1
 Ene=       3.7610
 Spin= Alpha
 Occup=    0.000000
1 1.37084151155498
2 -0.49945841188290
3 0.0
4 0.56190055834878
5 -0.40956621294636
6 1.37084151155498
7 -0.49945841188290
8 0.0
9 -0.56190055834878
10 -0.40956621294636
11 0.24419067715828
12 0.68453059116443
13 -2.24179172471818
14 0.0
15 0.0
16 -0.27322977139988
17 0.0
18 0.0
19 -0.58523929531249
20 1.05684791784494
21 -0.90891320379696
22 0.070805382615298
23 0.0
24 0.0
25 0.0
 Sym=      7.3
 Ene=       3.9733
 Spin= Alpha
 Occup=    0.000000
1 1.24051739679692
2 -0.36915126427663
3 0.0
4 0.53302237929883
5 -0.40330108311400
6 -1.24051739679692
7 0.36915126427663
8 0.0
9 0.53302237929883
10 0.40330108311400
11 0.0
12 0.0
13 0.0
14 0.0
15 0.31522194063091
16 0.0
17 0.0
18 0.86229620393773
19 0.0
20 0.0
21 0.0
22 0.0
23 0.0
24 0.0
25 1.24029087023565
 Sym=     12.1
 Ene=       5.8582
 Spin= Alpha
 Occup=    0.000000
1 0.070227137595545
2 -0.21379248394195
3 0.0
4 0.10731083409388
5 -0.092064552205075
6 0.070227137595545
7 -0.21379248394195
8 0.0
9 -0.10731083409388
10 -0.092064552205075
11 0.35413596370434
12 3.35014430006534
13 -0.29964945667031
14 0.0
15 0.0
16 -0.12924427282919
17 0.0
18 0.0
19 0.14186014213977
20 -1.40062087394514
21 -1.48526376860109
22 -1.42971491541342
23 0.0
24 0.0
25 0.0
[Molden Format]
[Molpro variables]
_NUMVAR=  783.0000000000000    
_AVOGAD= 0.6022136736000000E+24
_BOLTZ= 0.1380658000000000E-22
_CLIGHT=  29979245800.00000    
_EV2006= 0.3674930886769165E-01
_EV= 0.3674932534394180E-01
_ENULL= 0.8854187817000000E-11
_KJOULE= 0.3808798324128737E-03
_KJOULE/MOL= 0.3808798324128737E-03
_CM= 0.4556335267302901E-05
_CM-1= 0.4556335267302901E-05
_DEB2SI= 0.3335641000000000E-29
_AMU2AU=  1822.888390000000    
_KCAL= 0.1593601117815568E-02
_KCAL/MOL= 0.1593601117815568E-02
_KELVIN2006= 0.3166828861084835E-05
_KELVIN= 0.3166814820820034E-05
_JOULE= 0.4359748200000000E-17
_HERTZ2006= 0.1519829850815779E-15
_HERTZ= 0.1519829846011223E-15
_HZ2006= 0.1519829850815779E-15
_HZ= 0.1519829846011223E-15
_JPCAL=  4.184000000000000    
_PLANCK= 0.6626075540000000E-33
_TOA2006= 0.5291772490000000    
_TOA= 0.5291772090000000    
_TOANG2006= 0.5291772490000000    
_TOANG= 0.5291772090000000    
_TORAD= 0.1745329251994330E-01
_TOCM=  219474.6306700000    
_TODEBYE=  2.541580000000000    
_TOEV2006=  27.21139610000000    
_TOE= 0.4803242000000000E-09
_TOEV=  27.21138390000000    
_TOHERTZ2006=  6579683899900000.    
_TOHERTZ=  6579683920700000.    
_TOHZ2006=  6579683899900000.    
_TOHZ=  6579683920700000.    
_TOK2006=  315773.3000000000    
_TOK=  315774.7000000000    
_TOKCAL=  627.5096000000000    
_TOKELVIN2006=  315773.3000000000    
_TOKELVIN=  315774.7000000000    
_TOKJ=  2625.500000000000    
_TOKJOULE=  2625.500000000000    
_TOKG= 0.1660565586000000E-26
_ANG2006=  1.889725988578923    
_ANG=  1.889726131421507    
_ANGSTROM2006=  1.889725988578923    
_ANGSTROM=  1.889726131421507    
_RPAREF=  0.000000000000000    
_RPADISS=  0.000000000000000    
_IGNORE_UNDEF=  2.000000000000000    
_STRICTCHECK=  0.000000000000000    
_SEW_ONEEL=  0.000000000000000    
_CPPDONE=FALSE
_DKROLL_DONE=  0.000000000000000    
_FOCKDONE=TRUE
_GRADONE=FALSE
_HESSDONE=FALSE
_INTDONE=TRUE
_SCFDONE=TRUE
_MODUL_BLOCK=FALSE
_MODUL_CUDA=FALSE
_MODUL_SLATER=FALSE
_MODUL_MRCC=FALSE
_MODUL_NBO6=FALSE
_MODUL_NECI=TRUE
_MODUL_AIMS=TRUE
_MRCC_EXEC=
_FITC_AO_SAVED=FALSE
_FITC_MO_SAVED=FALSE
_SHARED_FS=TRUE
_LSTYP=SEWARD
_INTYP=INTS
_GEOMTYP=ZMAT
_GRADTYP=ALASKA
_DIRECT=FALSE
_DKHO=-1.0000000000000000    
_SYNCM=  0.000000000000000    
_BASIS=CC-PVDZ
_ZORIENT= 1.0000000000000000    
_NELEC= 10.000000000000000    
!SPIN=  0.000000000000000    
_QSDSTEP=  0.000000000000000    
_QSDIRC=  0.000000000000000    
_PROGRAM=UHF-SCF
_CPUSTEP= 0.1000000000000001E-01
_SYSSTEP=  0.000000000000000    
_WALLSTEP= 0.2000000000000000E-01
!DFSCF=  0.000000000000000    
!SCSGRD=  0.000000000000000    
_BASINP=  610.0000000000000    
_CARTESIAN=TRUE
_CPUTOT= 0.1500000000000000    
_CPUSORT= 0.3000000000000000E-01
_SYSSORT= 0.2000000000000000E-01
_WALLSORT= 0.3999999910593033E-01
_DMX=  0.000000000000000    
_DMY=  0.000000000000000    
_DMZ= 0.8173937684284998    
_DMX_SCF=  0.000000000000000    
_DMY_SCF=  0.000000000000000    
_DMZ_SCF= 0.8173937684284998    
_EHOMO=-0.4846241969434822    
_ELUMO= 0.1569177154909468    
_ENERGY= -75.99239992084628    
_ENUC=  8.064982892813699    
_EPS1= -20.57047319494269    
_EPS2=-0.4846241969434831    
_EPS3=-0.6419800981916215    
_EPS4=  1.439173071019161    
_GRADEXFAC=  9999.000000000000    
_GRADMETHOD=  3.000000000000000    
_NMRMETHOD=  0.000000000000000    
!GRID_FREEZE=-1.0000000000000000    
_ITERATIONS=  11.00000000000000    
_LASTNELEC= 10.000000000000000    
_LASTSPIN=  0.000000000000000    
_LASTSYM= 1.0000000000000000    
_MPP_PROG=  0.000000000000000    
_NPROC_MPP= 1.0000000000000000    
_NPROC_MPPX= 1.0000000000000000    
_NPROC_SMP= 1.0000000000000000    
_NUMSTEP=  0.000000000000000    
_ORBITAL=  2100.200000000000    
_PI=  3.141592653589793    
_SEIG_MIN= 0.2064389216324539E-01
_SEWPROP=TRUE
_SSQUARED= 0.7993605777301127E-14
_STATUS= 1.0000000000000000    
_SYSTOT= 0.7000000000000001E-01
_VERSION=  2012001.000000000    
_WALLTOT= 0.2600000000000000    
_DATE=28-Sep-15
_LASTORB=UHFNAT
_MACHINE=Linux-2.6.32-504.30.3.el6.x86_64/soroban(x86_64) 64 bit serial version
_OUTPUT=/home/vincpohl/project.orbkit/molpro/h2o_uhf_cart.xml
_PGROUP=C2v
_TIME=17:45:03
_LIBMOL=/cm/shared/apps/molpro/2012.1.10openmp/molpros_2012_1_Linux_x86_64_i8/lib/
!VIBCNT=  0.000000000000000    
!RGHFCNT=  0.000000000000000    
!SURFREC=  0.000000000000000    
!POLYREC=  0.000000000000000    
!DIPREC=  0.000000000000000    
!VSCFREC=  0.000000000000000    
!VCIREC=  0.000000000000000    
!PVCIREC=  0.000000000000000    
!VMP2REC=  0.000000000000000    
!VMCSCFREC=  0.000000000000000    
!VMRCIREC=  0.000000000000000    
!VIBINFO=  0.000000000000000    
!GAREC=  0.000000000000000    
!SCFORB=  21002.00000000000    
!UNO_OCC=  3.000000000000000    
!UNO_CLOSED=  3.000000000000000    
!NEWMOL=-1.0000000000000000    
!NEWSYM=-1.0000000000000000    
_SLFILES=slscratch
_NGSSTO=  9.000000000000000    
_SIN=SIN
_COS=COS
_TAN=TAN
_ACOS=ACOS
_ASIN=ASIN
_ATAN=ATAN
_COSH=COSH
_SINH=SINH
_TANH=TANH
_ABS=ABS
_MOD=MOD
_ERF=ERF
_REFC=REFC
_ERFC=ERFC
_HYPOT=HYPOT
_J0=J0
_J1=J1
_JN=JN
_GAMMA=GAMMA
_LGAMMA=LGAMMA
_Y0=Y0
_Y1=Y1
_YN=YN
_EXP=EXP
_LOG=LOG
_LOG10=LOG10
_SQRT=SQRT
_INT=INT
_NINT=NINT
_MAX=MAX
_MIN=MIN
_COSMO=  0.000000000000000    
_COSMOIT=  0.000000000000000    
_COSMOES=  0.000000000000000    
_COSMOEDS=  0.000000000000000    
_COSMOEC=  0.000000000000000    
_COSMOEDCORR=  0.000000000000000    
_FEPSI= 1.0000000000000000    
_SL_IsMM=  0.000000000000000    
_SL_NSYM=  4.000000000000000    
_SL_System_BitSw=  0.000000000000000    
_SL_Unique_atoms=  0.000000000000000    
_SL_GRAD=  0.000000000000000    
_SL_MAXUPD_Hess=  5.000000000000000    
_SL_N_PRINT_COD=  5.000000000000000    
_SL_PRINT_CODES=  0.000000000000000    
_SL_BasType=  0.000000000000000    
_SL_Energy_Pred=  0.000000000000000    
_SL_New_Coords=  0.000000000000000    
_SL_Total_Nuclea=  0.000000000000000    
_SL_Highest_Mltp=  0.000000000000000    
_SL_Ref_Geom=  0.000000000000000    
_SL_Symmetry_ope= 1.0000000000000000    
_SL_agrad=  0.000000000000000    
_SL_GrdMax=  0.000000000000000    
_SL_GrdNorm=  0.000000000000000    
_SL_GrdRMS=  0.000000000000000    
!LATTICE=-1.0000000000000000    
!NEWLATTICE=  0.000000000000000    
!LATGRAD_VAR=FALSE
!SEW_LATTICE= 1.0000000000000000    
!LOCAL=  0.000000000000000    
!SAVEDOM=-1.0000000000000000    
!RESTDOM=-1.0000000000000000    
!SAVEDOM_HF=-1.0000000000000000    
!RESTDOM_HF=-1.0000000000000000    
!HESSREC=  0.000000000000000    
!FREQREC=  0.000000000000000    
!NMODREC=  0.000000000000000    
!GTASKS=  0.000000000000000    
!HTASKS=  0.000000000000000    
!THRCHG= 0.1000000000000000    
!DEBUG=-1.0000000000000000    
!CFIT_CPHF=  0.000000000000000    
!RDOMAUX_CPHF=  3.000000000000000    
!THRAO_CPHF= 0.1000000000000000E-09
!THRMO_CPHF= 0.1000000000000000E-08
!THROV_CPHF= 0.1000000000000000E-11
!THRSW_CPHF= 0.1000000000000000E-09
!THRPROD_CPHF= 0.1000000000000000E-08
!THRAOPR_CPHF= 0.1000000000000000E-11
!CFIT_SCFGRD=  0.000000000000000    
!RDOMAUX_SCFGRD=  5.000000000000000    
!THRAO_SCFGRD= 0.1000000000000000E-09
!THRMO_SCFGRD= 0.1000000000000000E-08
!THROV_SCFGRD= 0.1000000000000000E-11
!THRSW_SCFGRD= 0.1000000000000000E-09
!THRPROD_SCFGRD= 0.1000000000000000E-08
!THRAOPR_SCFGRD= 0.1000000000000000E-11
!LOCFIT_SCF=  0.000000000000000    
!LOCFIT_MP2=-1.0000000000000000    
_RIDOM=  0.000000000000000    
!CC2_METHOD=  0.000000000000000    
_BASIS2006=FALSE
_SVDDEL=-1.0000000000000000    
_SVDDELA=-1.0000000000000000    
_SVDDELP=-1.0000000000000000    
_SVDDELF=-1.0000000000000000    
_SVDDELS=-1.0000000000000000    
_SVDDEL_ABS=-1.0000000000000000    
_SVDDELA_ABS=-1.0000000000000000    
_SVDDELP_ABS=-1.0000000000000000    
_SVDDELF_ABS=-1.0000000000000000    
_SVDDELS_ABS=-1.0000000000000000    
_MAXBASIS=  0.000000000000000    
!OPT_CONICAL=  0.000000000000000    
!CLEARSP_JGRID=  0.000000000000000    
_4EXT_NDISKS= 1.0000000000000000    
!ZMP=  0.000000000000000    
_MAXIT_ZMP=  500.0000000000000    
_MAXDIS_ZMP= 100.00000000000000    
_ACCU_ZMP=  14.00000000000000    
_SHIFTA_ZMP=-100.00000000000000    
!EMBEDFLAG= 1.0000000000000000    
!EMBED=FALSE
!EMBED_F12=FALSE
!EMBEDNUC=  0.000000000000000    
_EMBEDENERGY=  0.000000000000000    
_KSPACETIME=  0.000000000000000    
_RSPACETIME=  0.000000000000000    
!EMBED_DFC=FALSE
!NUM_VOIDS=  0.000000000000000    
_IBODY=  0.000000000000000    
_EMBE_TOTAL=  0.000000000000000    
_EMBE_HF=  0.000000000000000    
_EMBE_CORR=  0.000000000000000    
!EDFT=  0.000000000000000    
_IFASTLATGRAD=  0.000000000000000    
_SINDEX=  0.000000000000000    
GEOMTYP=XYZ
GX1=  0.000000000000000    
GY1=-0.8901392951000000    
GZ1= 0.5586943229000001    
GX2=  0.000000000000000    
GY2=  0.000000000000000    
GZ2=-0.7039393419999999E-01
GX3=  0.000000000000000    