[Molden Format]
[Molpro variables]
_NUMVAR=  783.0000000000000    
_AVOGAD= 0.6022136736000000E+24
_BOLTZ= 0.1380658000000000E-22
_CLIGHT=  29979245800.00000    
_EV2006= 0.3674930886769165E-01
_EV= 0.3674932534394180E-01
_ENULL= 0.8854187817000000E-11
_KJOULE= 0.3808798324128737E-03
_KJOULE/MOL= 0.3808798324128737E-03
_CM= 0.4556335267302901E-05
_CM-1= 0.4556335267302901E-05
_DEB2SI= 0.3335641000000000E-29
_AMU2AU=  1822.888390000000    
_KCAL= 0.1593601117815568E-02
_KCAL/MOL= 0.1593601117815568E-02
_KELVIN2006= 0.3166828861084835E-05
_KELVIN= 0.3166814820820034E-05
_JOULE= 0.4359748200000000E-17
_HERTZ2006= 0.1519829850815779E-15
_HERTZ= 0.1519829846011223E-15
_HZ2006= 0.1519829850815779E-15
_HZ= 0.1519829846011223E-15
_JPCAL=  4.184000000000000    
_PLANCK= 0.6626075540000000E-33
_TOA2006= 0.5291772490000000    
_TOA= 0.5291772090000000    
_TOANG2006= 0.5291772490000000    
_TOANG= 0.5291772090000000    
_TORAD= 0.1745329251994330E-01
_TOCM=  219474.6306700000    
_TODEBYE=  2.541580000000000    
_TOEV2006=  27.21139610000000    
_TOE= 0.4803242000000000E-09
_TOEV=  27.21138390000000    
_TOHERTZ2006=  6579683899900000.    
_TOHERTZ=  6579683920700000.    
_TOHZ2006=  6579683899900000.    
_TOHZ=  6579683920700000.    
_TOK2006=  315773.3000000000    
_TOK=  315774.7000000000    
_TOKCAL=  627.5096000000000    
_TOKELVIN2006=  315773.3000000000    
_TOKELVIN=  315774.7000000000    
_TOKJ=  2625.500000000000    
_TOKJOULE=  2625.500000000000    
_TOKG= 0.1660565586000000E-26
_ANG2006=  1.889725988578923    
_ANG=  1.889726131421507    
_ANGSTROM2006=  1.889725988578923    
_ANGSTROM=  1.889726131421507    
_RPAREF=  0.000000000000000    
_RPADISS=  0.000000000000000    
_IGNORE_UNDEF=  2.000000000000000    
_STRICTCHECK=  0.000000000000000    
_SEW_ONEEL=  0.000000000000000    
_CPPDONE=FALSE
_DKROLL_DONE=  0.000000000000000    
_FOCKDONE=TRUE
_GRADONE=FALSE
_HESSDONE=FALSE
_INTDONE=TRUE
_SCFDONE=TRUE
_MODUL_BLOCK=FALSE
_MODUL_CUDA=FALSE
_MODUL_SLATER=FALSE
_MODUL_MRCC=FALSE
_MODUL_NBO6=FALSE
_MODUL_NECI=TRUE
_MODUL_AIMS=TRUE
_MRCC_EXEC=
_FITC_AO_SAVED=FALSE
_FITC_MO_SAVED=FALSE
_SHARED_FS=TRUE
_LSTYP=SEWARD
_INTYP=INTS
_GEOMTYP=ZMAT
_GRADTYP=ALASKA
_DIRECT=FALSE
_DKHO=-1.0000000000000000    
_SYNCM=  0.000000000000000    
_BASIS=CC-PVDZ
_ZORIENT= 1.0000000000000000    
_NELEC= 10.000000000000000    
!SPIN=  0.000000000000000    
_QSDSTEP=  0.000000000000000    
_QSDIRC=  0.000000000000000    
_PROGRAM=RHF-SCF
_CPUSTEP= 0.9999999999999981E-02
_SYSSTEP=  0.000000000000000    
_WALLSTEP= 0.2000000000000000E-01
!DFSCF=  0.000000000000000    
!SCSGRD=  0.000000000000000    
_BASINP=  610.0000000000000    
_CARTESIAN=TRUE
_CPUTOT= 0.1500000000000000    
_CPUSORT= 0.2000000000000002E-01
_SYSSORT= 0.3000000000000001E-01
_WALLSORT= 0.6199999991804361    
_DFTEXFAC= 1.0000000000000000    
_DMX=  0.000000000000000    
_DMY=  0.000000000000000    
_DMZ= 0.8173943048719173    
_DMX_SCF=  0.000000000000000    
_DMY_SCF=  0.000000000000000    
_DMZ_SCF= 0.8173943048719173    
_EHOMO=-0.4846240656390429    
_ELUMO= 0.1569177388351206    
_ENERGY= -75.99239992084631    
_ENUC=  8.064982892813699    
_EPS1= -20.57047271945804    
_EPS2=-0.4846240656390429    
_EPS3=-0.6419798943197969    
_EPS4=  1.439173167701973    
_GRADEXFAC=  9999.000000000000    
_GRADMETHOD= 1.0000000000000000    
_NMRMETHOD=  0.000000000000000    
!GRID_FREEZE=-1.0000000000000000    
_ITERATIONS= 10.000000000000000    
_LASTNELEC= 10.000000000000000    
_LASTSPIN=  0.000000000000000    
_LASTSYM= 1.0000000000000000    
_MPP_PROG=  0.000000000000000    
_NPROC_MPP= 1.0000000000000000    
_NPROC_MPPX= 1.0000000000000000    
_NPROC_SMP= 1.0000000000000000    
_NUMSTEP=  0.000000000000000    
_ORBITAL=  2100.200000000000    
_PI=  3.141592653589793    
_SEIG_MIN= 0.2064389216324539E-01
_SEWPROP=TRUE
_STATUS= 1.0000000000000000    
_SYSTOT= 0.6000000000000000E-01
_VERSION=  2012001.000000000    
_WALLTOT= 0.8300000000000000    
_DATE=28-Sep-15
_LASTORB=RHF
_MACHINE=Linux-2.6.32-504.30.3.el6.x86_64/soroban(x86_64) 64 bit serial version
_OUTPUT=/home/vincpohl/project.orbkit/molpro/h2o_rhf_cart.xml
_PGROUP=C2v
_TIME=17:15:02
_LIBMOL=/cm/shared/apps/molpro/2012.1.10openmp/molpros_2012_1_Linux_x86_64_i8/lib/
!VIBCNT=  0.000000000000000    
!RGHFCNT=  0.000000000000000    
!SURFREC=  0.000000000000000    
!POLYREC=  0.000000000000000    
!DIPREC=  0.000000000000000    
!VSCFREC=  0.000000000000000    
!VCIREC=  0.000000000000000    
!PVCIREC=  0.000000000000000    
!VMP2REC=  0.000000000000000    
!VMCSCFREC=  0.000000000000000    
!VMRCIREC=  0.000000000000000    
!VIBINFO=  0.000000000000000    
!GAREC=  0.000000000000000    
!SCFORB=  21002.00000000000    
!NEWMOL=-1.0000000000000000    
!NEWSYM=-1.0000000000000000    
_SLFILES=slscratch
_NGSSTO=  9.000000000000000    
_SIN=SIN
_COS=COS
_TAN=TAN
_ACOS=ACOS
_ASIN=ASIN
_ATAN=ATAN
_COSH=COSH
_SINH=SINH
_TANH=TANH
_ABS=ABS
_MOD=MOD
_ERF=ERF
_REFC=REFC
_ERFC=ERFC
_HYPOT=HYPOT
_J0=J0
_J1=J1
_JN=JN
_GAMMA=GAMMA
_LGAMMA=LGAMMA
_Y0=Y0
_Y1=Y1
_YN=YN
_EXP=EXP
_LOG=LOG
_LOG10=LOG10
_SQRT=SQRT
_INT=INT
_NINT=NINT
_MAX=MAX
_MIN=MIN
_COSMO=  0.000000000000000    
_COSMOIT=  0.000000000000000    
_COSMOES=  0.000000000000000    
_COSMOEDS=  0.000000000000000    
_COSMOEC=  0.000000000000000    
_COSMOEDCORR=  0.000000000000000    
_FEPSI= 1.0000000000000000    
_SL_IsMM=  0.000000000000000    
_SL_NSYM=  4.000000000000000    
_SL_System_BitSw=  0.000000000000000    
_SL_Unique_atoms=  0.000000000000000    
_SL_GRAD=  0.000000000000000    
_SL_MAXUPD_Hess=  5.000000000000000    
_SL_N_PRINT_COD=  5.000000000000000    
_SL_PRINT_CODES=  0.000000000000000    
_SL_BasType=  0.000000000000000    
_SL_Energy_Pred=  0.000000000000000    
_SL_New_Coords=  0.000000000000000    
_SL_Total_Nuclea=  0.000000000000000    
_SL_Highest_Mltp=  0.000000000000000    
_SL_Ref_Geom=  0.000000000000000    
_SL_Symmetry_ope= 1.0000000000000000    
_SL_agrad=  0.000000000000000    
_SL_GrdMax=  0.000000000000000    
_SL_GrdNorm=  0.000000000000000    
_SL_GrdRMS=  0.000000000000000    
!LATTICE=-1.0000000000000000    
!NEWLATTICE=  0.000000000000000    
!LATGRAD_VAR=FALSE
!SEW_LATTICE= 1.0000000000000000    
!LOCAL=  0.000000000000000    
!SAVEDOM=-1.0000000000000000    
!RESTDOM=-1.0000000000000000    
!SAVEDOM_HF=-1.0000000000000000    
!RESTDOM_HF=-1.0000000000000000    
!HESSREC=  0.000000000000000    
!FREQREC=  0.000000000000000    
!NMODREC=  0.000000000000000    
!GTASKS=  0.000000000000000    
!HTASKS=  0.000000000000000    
!THRCHG= 0.1000000000000000    
!DEBUG=-1.0000000000000000    
!CFIT_CPHF=  0.000000000000000    
!RDOMAUX_CPHF=  3.000000000000000    
!THRAO_CPHF= 0.1000000000000000E-09
!THRMO_CPHF= 0.1000000000000000E-08
!THROV_CPHF= 0.1000000000000000E-11
!THRSW_CPHF= 0.1000000000000000E-09
!THRPROD_CPHF= 0.1000000000000000E-08
!THRAOPR_CPHF= 0.1000000000000000E-11
!CFIT_SCFGRD=  0.000000000000000    
!RDOMAUX_SCFGRD=  5.000000000000000    
!THRAO_SCFGRD= 0.1000000000000000E-09
!THRMO_SCFGRD= 0.1000000000000000E-08
!THROV_SCFGRD= 0.1000000000000000E-11
!THRSW_SCFGRD= 0.1000000000000000E-09
!THRPROD_SCFGRD= 0.1000000000000000E-08
!THRAOPR_SCFGRD= 0.1000000000000000E-11
!LOCFIT_SCF=  0.000000000000000    
!LOCFIT_MP2=-1.0000000000000000    
_RIDOM=  0.000000000000000    
!CC2_METHOD=  0.000000000000000    
_BASIS2006=FALSE
_SVDDEL=-1.0000000000000000    
_SVDDELA=-1.0000000000000000    
_SVDDELP=-1.0000000000000000    
_SVDDELF=-1.0000000000000000    
_SVDDELS=-1.0000000000000000    
_SVDDEL_ABS=-1.0000000000000000    
_SVDDELA_ABS=-1.0000000000000000    
_SVDDELP_ABS=-1.0000000000000000    
_SVDDELF_ABS=-1.0000000000000000    
_SVDDELS_ABS=-1.0000000000000000    
_MAXBASIS=  0.000000000000000    
!OPT_CONICAL=  0.000000000000000    
!CLEARSP_JGRID=  0.000000000000000    
_4EXT_NDISKS= 1.0000000000000000    
!ZMP=  0.000000000000000    
_MAXIT_ZMP=  500.0000000000000    
_MAXDIS_ZMP= 100.00000000000000    
_ACCU_ZMP=  14.00000000000000    
_SHIFTA_ZMP=-100.00000000000000    
!EMBEDFLAG= 1.0000000000000000    
!EMBED=FALSE
!EMBED_F12=FALSE
!EMBEDNUC=  0.000000000000000    
_EMBEDENERGY=  0.000000000000000    
_KSPACETIME=  0.000000000000000    
_RSPACETIME=  0.000000000000000    
!EMBED_DFC=FALSE
!NUM_VOIDS=  0.000000000000000    
_IBODY=  0.000000000000000    
_EMBE_TOTAL=  0.000000000000000    
_EMBE_HF=  0.000000000000000    
_EMBE_CORR=  0.000000000000000    
!EDFT=  0.000000000000000    
_IFASTLATGRAD=  0.000000000000000    
_SINDEX=  0.000000000000000    
GEOMTYP=XYZ
GX1=  0.000000000000000    
GY1=-0.8901392951000000    
GZ1= 0.5586943229000001    
GX2=  0.000000000000000    
GY2=  0.000000000000000    
GZ2=-0.7039393419999999E-01
GX3=  0.000000000000000    
GY3= 0.8901392951000000    
GZ3= 0.5586943229000001    
MD=h2o_rhf_cart.molden
[Atoms] Angs
H     1    1         0.0000000000       -0.8901392951        0.5586943229
O     2    8         0.0000000000        0.0000000000       -0.0703939342
H     3    1         0.0000000000        0.8901392951        0.5586943229
[GTO]
  1 0
 s    4  1.00
  0.1301000000D+02  0.1968498999D-01
  0.1962000000D+01  0.1379769298D+00
  0.4446000000D+00  0.4781477569D+00
  0.1220000000D+00  0.5012397451D+00
 s    4  1.00
  0.1301000000D+02  0.0000000000D+00
  0.1962000000D+01  0.0000000000D+00
  0.4446000000D+00  0.0000000000D+00
  0.1220000000D+00  0.1000000000D+01
 p    1  1.00
  0.7270000000D+00  0.1000000000D+01
  
  3 0
 s    4  1.00
  0.1301000000D+02  0.1968498999D-01
  0.1962000000D+01  0.1379769298D+00
  0.4446000000D+00  0.4781477569D+00
  0.1220000000D+00  0.5012397451D+00
 s    4  1.00
  0.1301000000D+02  0.0000000000D+00
  0.1962000000D+01  0.0000000000D+00
  0.4446000000D+00  0.0000000000D+00
  0.1220000000D+00  0.1000000000D+01
 p    1  1.00
  0.7270000000D+00  0.1000000000D+01
  
  2 0
 s    9  1.00
  0.1172000000D+05  0.7100002503D-03
  0.1759000000D+04  0.5470001928D-02
  0.4008000000D+03  0.2783700981D-01
  0.1137000000D+03  0.1048000369D+00
  0.3703000000D+02  0.2830620998D+00
  0.1327000000D+02  0.4487191582D+00
  0.5025000000D+01  0.2709520955D+00
  0.1013000000D+01  0.1545800545D-01
  0.3023000000D+00 -0.2585000911D-02
 s    9  1.00
  0.1172000000D+05 -0.1600000154D-03
  0.1759000000D+04 -0.1263000121D-02
  0.4008000000D+03 -0.6267000602D-02
  0.1137000000D+03 -0.2571600247D-01
  0.3703000000D+02 -0.7092400682D-01
  0.1327000000D+02 -0.1654110159D+00
  0.5025000000D+01 -0.1169550112D+00
  0.1013000000D+01  0.5573680536D+00
  0.3023000000D+00  0.5727590551D+00
 s    9  1.00
  0.1172000000D+05  0.0000000000D+00
  0.1759000000D+04  0.0000000000D+00
  0.4008000000D+03  0.0000000000D+00
  0.1137000000D+03  0.0000000000D+00
  0.3703000000D+02  0.0000000000D+00
  0.1327000000D+02  0.0000000000D+00
  0.5025000000D+01  0.0000000000D+00
  0.1013000000D+01  0.0000000000D+00
  0.3023000000D+00  0.1000000000D+01
 p    4  1.00
  0.1770000000D+02  0.4301799242D-01
  0.3854000000D+01  0.2289129597D+00
  0.1046000000D+01  0.5087279104D+00
  0.2753000000D+00  0.4605309189D+00
 p    4  1.00
  0.1770000000D+02  0.0000000000D+00
  0.3854000000D+01  0.0000000000D+00
  0.1046000000D+01  0.0000000000D+00
  0.2753000000D+00  0.1000000000D+01
 d    1  1.00
  0.1185000000D+01  0.1000000000D+01
 
 
[MO]
 Sym=      1.1
 Ene=     -20.5705
 Spin= Alpha
 Occup=    2.000000
1 0.000347675324236
2 0.000071866714140
3 0.0
4 -0.000137855534111
5 0.000162655163135
6 0.000347675324236
7 0.000071866714140
8 0.0
9 0.000137855534111
10 0.000162655163135
11 1.00037141619579
12 0.003252032394994
13 -0.000809140912660
14 0.0
15 0.0
16 0.002008318816871
17 0.0
18 0.0
19 -0.001572737144566
20 -0.001008399661495
21 -0.001216677255681
22 -0.001172102105035
23 0.0
24 0.0
25 0.0
 Sym=      2.1
 Ene=      -1.2776
 Spin= Alpha
 Occup=    2.000000
1 0.24232428815577
2 -0.10680927659819
3 0.0
4 0.027810179544315
5 -0.014869146038717
6 0.24232428815577
7 -0.10680927659819
8 0.0
9 -0.027810179544315
10 -0.014869146038717
11 -0.005749838475157
12 0.89283038519144
13 -0.057293877929255
14 0.0
15 0.0
16 0.076871005586360
17 0.0
18 0.0
19 -0.031188357759134
20 -0.000845290483843
21 0.004543406441758
22 0.002908940078739
23 0.0
24 0.0
25 0.0
 Sym=      1.3
 Ene=      -0.6420
 Spin= Alpha
 Occup=    2.000000
1 -0.51784605993917
2 0.14681625868732
3 0.0
4 -0.025638025491651
5 0.028188373955072
6 0.51784605993917
7 -0.14681625868732
8 0.0
9 -0.025638025491651
10 -0.028188373955072
11 0.0
12 0.0
13 0.0
14 0.0
15 0.68761209745170
16 0.0
17 0.0
18 -0.064805511190678
19 0.0
20 0.0
21 0.0
22 0.0
23 0.0
24 0.0
25 0.022654801024547
 Sym=      3.1
 Ene=      -0.5334
 Spin= Alpha
 Occup=    2.000000
1 0.34094359865473
2 -0.098431943012734
3 0.0
4 0.026914191717112
5 0.005828889925502
6 0.34094359865473
7 -0.098431943012734
8 0.0
9 -0.026914191717112
10 0.005828889925502
11 0.001804345786837
12 -0.27174055682468
13 -0.15295576339949
14 0.0
15 0.0
16 0.78471338022742
17 0.0
18 0.0
19 0.026941388723273
20 -0.004785555216703
21 0.004733019912814
22 0.023364354399549
23 0.0
24 0.0
25 0.0
 Sym=      1.2
 Ene=      -0.4846
 Spin= Alpha
 Occup=    2.000000
1 0.0
2 0.0
3 0.025528417220148
4 0.0
5 0.0
6 0.0
7 0.0
8 0.025528417220148
9 0.0
10 0.0
11 0.0
12 0.0
13 0.0
14 0.92664413668045
15 0.0
16 0.0
17 0.073385514205413
18 0.0
19 0.0
20 0.0
21 0.0
22 0.0
23 0.0
24 0.015849382511411
25 0.0
 Sym=      4.1
 Ene=       0.1569
 Spin= Alpha
 Occup=    0.000000
1 0.17887131806415
2 0.68300031448913
3 0.0
4 0.003417329034111
5 -0.008921625597281
6 0.17887131806415
7 0.68300031448913
8 0.0
9 -0.003417329034111
10 -0.008921625597281
11 0.051320167579111
12 -0.17984676529064
13 -0.83242219752106
14 0.0
15 0.0
16 -0.34148553487270
17 0.0
18 0.0
19 -0.21951567683609
20 0.035096086331442
21 0.031113789608746
22 0.023053706601758
23 0.0
24 0.0
25 0.0
 Sym=      2.3
 Ene=       0.2325
 Spin= Alpha
 Occup=    0.000000
1 0.10130964376480
2 1.13731694070030
3 0.0
4 0.011313980163586
5 -0.004354464565782
6 -0.10130964376480
7 -1.13731694070030
8 0.0
9 0.011313980163586
10 0.004354464565782
11 0.0
12 0.0
13 0.0
14 0.0
15 0.46972879444572
16 0.0
17 0.0
18 0.44854421031892
19 0.0
20 0.0
21 0.0
22 0.0
23 0.0
24 0.0
25 0.011408305892552
 Sym=      3.3
 Ene=       0.7250
 Spin= Alpha
 Occup=    0.000000
1 -1.58538674543360
2 1.62907751608617
3 0.0
4 0.044234752589467
5 -0.12383678393949
6 1.58538674543360
7 -1.62907751608617
8 0.0
9 0.044234752589467
10 0.12383678393949
11 0.0
12 0.0
13 0.0
14 0.0
15 -0.44150497990583
16 0.0
17 0.0
18 -0.044502297705877
19 0.0
20 0.0
21 0.0
22 0.0
23 0.0
24 0.0
25 0.093795635060817
 Sym=      5.1
 Ene=       0.7306
 Spin= Alpha
 Occup=    0.000000
1 -1.49735066707134
2 1.39312714001565
3 0.0
4 0.18679157988452
5 -0.019420669672041
6 -1.49735066707134
7 1.39312714001565
8 0.0
9 -0.18679157988452
10 -0.019420669672041
11 0.075338631725288
12 0.47093875695412
13 -0.60683291783284
14 0.0
15 0.0
16 0.41161535362175
17 0.0
18 0.0
19 -0.12125240236528
20 0.078751363342950
21 -0.067513216303041
22 0.022028111060929
23 0.0
24 0.0
25 0.0
 Sym=      6.1
 Ene=       1.1660
 Spin= Alpha
 Occup=    0.000000
1 -0.50204958831795
2 0.15500095282050
3 0.0
4 -0.056811035862169
5 0.29134265547637
6 -0.50204958831795
7 0.15500095282050
8 0.0
9 0.056811035862169
10 0.29134265547637
11 0.026149114026940
12 0.25201756824083
13 0.14189614438751
14 0.0
15 0.0
16 -1.16356123856715
17 0.0
18 0.0
19 1.60022107226676
20 0.037002663973579
21 0.016015831176002
22 0.063283369026211
23 0.0
24 0.0
25 0.0
 Sym=      2.2
 Ene=       1.1901
 Spin= Alpha
 Occup=    0.000000
1 0.0
2 0.0
3 0.11740001050049
4 0.0
5 0.0
6 0.0
7 0.0
8 0.11740001050049
9 0.0
10 0.0
11 0.0
12 0.0
13 0.0
14 -1.38088514421218
15 0.0
16 0.0
17 1.57304380052078
18 0.0
19 0.0
20 0.0
21 0.0
22 0.0
23 0.0
24 0.007092532427698
25 0.0
 Sym=      4.3
 Ene=       1.2590
 Spin= Alpha
 Occup=    0.000000
1 0.52467611962172
2 0.35835961239132
3 0.0
4 0.35982447645786
5 -0.064691950203267
6 -0.52467611962172
7 -0.35835961239132
8 0.0
9 0.35982447645786
10 0.064691950203267
11 0.0
12 0.0
13 0.0
14 0.0
15 -1.10810105108844
16 0.0
17 0.0
18 2.10420933338075
19 0.0
20 0.0
21 0.0
22 0.0
23 0.0
24 0.0
25 -0.004551953269423
 Sym=      1.4
 Ene=       1.4392
 Spin= Alpha
 Occup=    0.000000
1 0.0
2 0.0
3 0.67796493252733
4 0.0
5 0.0
6 0.0
7 0.0
8 -0.67796493252733
9 0.0
10 0.0
11 0.0
12 0.0
13 0.0
14 0.0
15 0.0
16 0.0
17 0.0
18 0.0
19 0.0
20 0.0
21 0.0
22 0.0
23 -0.14443158162188
24 0.0
25 0.0
 Sym=      7.1
 Ene=       1.4699
 Spin= Alpha
 Occup=    0.000000
1 0.14732536709860
2 -0.36127233326485
3 0.0
4 0.26262071244754
5 0.46052713525502
6 0.14732536709860
7 -0.36127233326485
8 0.0
9 -0.26262071244754
10 0.46052713525502
11 -0.39907340567636
12 -1.67504374946251
13 2.45032666471612
14 0.0
15 0.0
16 0.25663382345454
17 0.0
18 0.0
19 -0.52896707182693
20 -0.18688711750482
21 -0.27354185617140
22 -0.057277396781545
23 0.0
24 0.0
25 0.0
 Sym=      3.2
 Ene=       1.6790
 Spin= Alpha
 Occup=    0.000000
1 0.0
2 0.0
3 0.74245142715084
4 0.0
5 0.0
6 0.0
7 0.0
8 0.74245142715084
9 0.0
10 0.0
11 0.0
12 0.0
13 0.0
14 0.27697382824430
15 0.0
16 0.0
17 -0.81543842076319
18 0.0
19 0.0
20 0.0
21 0.0
22 0.0
23 0.0
24 0.15871180998533
25 0.0
 Sym=      8.1
 Ene=       1.7691
 Spin= Alpha
 Occup=    0.000000
1 -1.02259826998411
2 0.23848446593311
3 0.0
4 -0.29006995359082
5 -0.29746544308337
6 -1.02259826998411
7 0.23848446593311
8 0.0
9 0.29006995359082
10 -0.29746544308337
11 -0.60458873384364
12 -2.36254557597081
13 3.84754116336120
14 0.0
15 0.0
16 -0.43247498652059
17 0.0
18 0.0
19 1.25144870774019
20 -0.10985142177079
21 -0.23199343460068
22 -0.38149745889131
23 0.0
24 0.0
25 0.0
 Sym=      5.3
 Ene=       1.7913
 Spin= Alpha
 Occup=    0.000000
1 -0.67158932292751
2 0.22588034383436
3 0.0
4 0.37226243708794
5 0.66151857792567
6 0.67158932292751
7 -0.22588034383436
8 0.0
9 0.37226243708794
10 -0.66151857792567
11 0.0
12 0.0
13 0.0
14 0.0
15 0.34588345870409
16 0.0
17 0.0
18 -1.16762119454914
19 0.0
20 0.0
21 0.0
22 0.0
23 0.0
24 0.0
25 0.018853337261693
 Sym=      6.3
 Ene=       2.1793
 Spin= Alpha
 Occup=    0.000000
1 0.24903567793546
2 0.21534000199908
3 0.0
4 0.63582711266783
5 -0.53800663560516
6 -0.24903567793546
7 -0.21534000199908
8 0.0
9 0.63582711266783
10 0.53800663560516
11 0.0
12 0.0
13 0.0
14 0.0
15 0.98498858698309
16 0.0
17 0.0
18 -0.20868251683799
19 0.0
20 0.0
21 0.0
22 0.0
23 0.0
24 0.0
25 -0.11681239719236
 Sym=      9.1
 Ene=       2.2141
 Spin= Alpha
 Occup=    0.000000
1 0.74646174256388
2 -0.11516659827033
3 0.0
4 0.81738933273958
5 -0.42117887378539
6 0.74646174256388
7 -0.11516659827033
8 0.0
9 -0.81738933273958
10 -0.42117887378539
11 0.085110362366797
12 0.052408043675313
13 -1.38152518026590
14 0.0
15 0.0
16 -0.69243661441022
17 0.0
18 0.0
19 -0.089789525394484
20 -0.22562367922487
21 0.12539589372759
22 0.069297104882297
23 0.0
24 0.0
25 0.0
 Sym=      4.2
 Ene=       3.1604
 Spin= Alpha
 Occup=    0.000000
1 0.0
2 0.0
3 -0.29175030665898
4 0.0
5 0.0
6 0.0
7 0.0
8 -0.29175030665898
9 0.0
10 0.0
11 0.0
12 0.0
13 0.0
14 -0.071887091201699
15 0.0
16 0.0
17 0.24707304699705
18 0.0
19 0.0
20 0.0
21 0.0
22 0.0
23 0.0
24 1.01095946874135
25 0.0
 Sym=      2.4
 Ene=       3.2335
 Spin= Alpha
 Occup=    0.000000
1 0.0
2 0.0
3 0.29913846552772
4 0.0
5 0.0
6 0.0
7 0.0
8 -0.29913846552772
9 0.0
10 0.0
11 0.0
12 0.0
13 0.0
14 0.0
15 0.0
16 0.0
17 0.0
18 0.0
19 0.0
20 0.0
21 0.0
22 0.0
23 1.02928842362733
24 0.0
25 0.0
 Sym=     10.1
 Ene=       3.3107
 Spin= Alpha
 Occup=    0.000000
1 -0.36660369656254
2 0.14261685269614
3 0.0
4 -0.31063536569755
5 -0.23968603958751
6 -0.36660369656254
7 0.14261685269614
8 0.0
9 0.31063536569755
10 -0.23968603958751
11 -0.078721567942218
12 -0.26114923313081
13 0.61158119306316
14 0.0
15 0.0
16 -0.048515355758597
17 0.0
18 0.0
19 0.43570910495333
20 -0.49741255757319
21 -0.56204085118894
22 1.01114599472989
23 0.0
24 0.0
25 0.0
 Sym=     11.1
 Ene=       3.7610
 Spin= Alpha
 Occup=    0.000000
1 1.37084149494613
2 -0.49945841179656
3 0.0
4 0.56190054831340
5 -0.40956620817986
6 1.37084149494613
7 -0.49945841179656
8 0.0
9 -0.56190054831340
10 -0.40956620817986
11 0.24419066511829
12 0.68453053717831
13 -2.24179164823001
14 0.0
15 0.0
16 -0.27322976353413
17 0.0
18 0.0
19 -0.58523927794119
20 1.05684791918693
21 -0.90891320757133
22 0.070805383730524
23 0.0
24 0.0
25 0.0
 Sym=      7.3
 Ene=       3.9733
 Spin= Alpha
 Occup=    0.000000
1 1.24051738938337
2 -0.36915127447836
3 0.0
4 0.53302237134446
5 -0.40330107888580
6 -1.24051738938337
7 0.36915127447836
8 0.0
9 0.53302237134446
10 0.40330107888580
11 0.0
12 0.0
13 0.0
14 0.0
15 0.31522196162482
16 0.0
17 0.0
18 0.86229616764611
19 0.0
20 0.0
21 0.0
22 0.0
23 0.0
24 0.0
25 1.24029087051140
 Sym=     12.1
 Ene=       5.8582
 Spin= Alpha
 Occup=    0.000000
1 0.070227144784557
2 -0.21379248420688
3 0.0
4 0.10731083331505
5 -0.092064550198123
6 0.070227144784557
7 -0.21379248420688
8 0.0
9 -0.10731083331505
10 -0.092064550198123
11 0.35413597554526
12 3.35014434988245
13 -0.29964952601227
14 0.0
15 0.0
16 -0.12924427400359
17 0.0
18 0.0
19 0.14186013785725
20 -1.40062086517413
21 -1.48526376355323
22 -1.42971491420204
23 0.0
24 0.0
25 0.0
