[Molden Format]
[Molpro variables]
_NUMVAR=  786.0000000000000    
_AVOGAD= 0.6022136736000000E+24
_BOLTZ= 0.1380658000000000E-22
_CLIGHT=  29979245800.00000    
_EV2006= 0.3674930886769165E-01
_EV= 0.3674932534394180E-01
_ENULL= 0.8854187817000000E-11
_KJOULE= 0.3808798324128737E-03
_KJOULE/MOL= 0.3808798324128737E-03
_CM= 0.4556335267302901E-05
_CM-1= 0.4556335267302901E-05
_DEB2SI= 0.3335641000000000E-29
_AMU2AU=  1822.888390000000    
_KCAL= 0.1593601117815568E-02
_KCAL/MOL= 0.1593601117815568E-02
_KELVIN2006= 0.3166828861084835E-05
_KELVIN= 0.3166814820820034E-05
_JOULE= 0.4359748200000000E-17
_HERTZ2006= 0.1519829850815779E-15
_HERTZ= 0.1519829846011223E-15
_HZ2006= 0.1519829850815779E-15
_HZ= 0.1519829846011223E-15
_JPCAL=  4.184000000000000    
_PLANCK= 0.6626075540000000E-33
_TOA2006= 0.5291772490000000    
_TOA= 0.5291772090000000    
_TOANG2006= 0.5291772490000000    
_TOANG= 0.5291772090000000    
_TORAD= 0.1745329251994330E-01
_TOCM=  219474.6306700000    
_TODEBYE=  2.541580000000000    
_TOEV2006=  27.21139610000000    
_TOE= 0.4803242000000000E-09
_TOEV=  27.21138390000000    
_TOHERTZ2006=  6579683899900000.    
_TOHERTZ=  6579683920700000.    
_TOHZ2006=  6579683899900000.    
_TOHZ=  6579683920700000.    
_TOK2006=  315773.3000000000    
_TOK=  315774.7000000000    
_TOKCAL=  627.5096000000000    
_TOKELVIN2006=  315773.3000000000    
_TOKELVIN=  315774.7000000000    
_TOKJ=  2625.500000000000    
_TOKJOULE=  2625.500000000000    
_TOKG= 0.1660565586000000E-26
_ANG2006=  1.889725988578923    
_ANG=  1.889726131421507    
_ANGSTROM2006=  1.889725988578923    
_ANGSTROM=  1.889726131421507    
_RPAREF=  0.000000000000000    
_RPADISS=  0.000000000000000    
_IGNORE_UNDEF=  2.000000000000000    
_STRICTCHECK=  0.000000000000000    
_SEW_ONEEL=  0.000000000000000    
_CPPDONE=FALSE
_DKROLL_DONE=  0.000000000000000    
_FOCKDONE=TRUE
_GRADONE=FALSE
_HESSDONE=FALSE
_INTDONE=TRUE
_SCFDONE=TRUE
_MODUL_BLOCK=FALSE
_MODUL_CUDA=FALSE
_MODUL_SLATER=FALSE
_MODUL_MRCC=FALSE
_MODUL_NBO6=FALSE
_MODUL_NECI=TRUE
_MODUL_AIMS=TRUE
_MRCC_EXEC=
_FITC_AO_SAVED=FALSE
_FITC_MO_SAVED=FALSE
_SHARED_FS=TRUE
_LSTYP=SEWARD
_INTYP=INTS
_GEOMTYP=ZMAT
_GRADTYP=ALASKA
_DIRECT=FALSE
_DKHO=-1.0000000000000000    
_SYNCM=  0.000000000000000    
_BASIS=CC-PVDZ
_ZORIENT= 1.0000000000000000    
_NELEC=  16.00000000000000    
!SPIN=  0.000000000000000    
_OPTCONV= 0.1910083207660011E-03
_QSDSTEP=  0.000000000000000    
_QSDIRC=  0.000000000000000    
_PROGRAM=OPTG
_CPUSTEP=  0.000000000000000    
_SYSSTEP=  0.000000000000000    
_WALLSTEP=  0.000000000000000    
!DFSCF=  0.000000000000000    
!SCSGRD=  0.000000000000000    
_BASINP=  610.0000000000000    
_CPUTOT=  2.270000000000000    
_CPUSORT= 0.4999999999999982E-01
_SYSSORT= 0.2999999999999992E-01
_WALLSORT= 0.7000000029802322E-01
_DFTEXFAC= 1.0000000000000000    
_DMX=  0.000000000000000    
_DMY=  0.000000000000000    
_DMZ= -1.010472456147617    
_DMX_SCF=  0.000000000000000    
_DMY_SCF=  0.000000000000000    
_DMZ_SCF= -1.010472456147617    
_EHOMO=-0.4322175540260672    
_ELUMO= 0.1430789950728661    
_ENERGY= -113.8772227158101    
_ENUC=  31.76943544162410    
_EPS1= -20.57451838502188    
_EPS2=-0.5393739576676214    
_EPS3=-0.6932841257367629    
_EPS4=  1.157873398837555    
_GRADENERG= -113.8772227124091    
_GRADEXFAC=  9999.000000000000    
_GRADMETHOD= 1.0000000000000000    
_NMRMETHOD=  0.000000000000000    
_VIRIAL= 0.4514266873115863E-04
!GRID_FREEZE=-1.0000000000000000    
_ITERATIONS=  7.000000000000000    
_LASTNELEC=  16.00000000000000    
_LASTSPIN=  0.000000000000000    
_LASTSYM= 1.0000000000000000    
_MPP_PROG=  0.000000000000000    
_NPROC_MPP= 1.0000000000000000    
_NPROC_MPPX= 1.0000000000000000    
_NPROC_SMP= 1.0000000000000000    
_NUMSTEP=  0.000000000000000    
_OPTCONVMX= 0.1888934030687683E-03
_OPTCONVRMS= 0.9550416038312132E-04
_OPTGRAD= 0.3967942985045995E-04
_OPTGRADMX= 0.3063074014544375E-04
_OPTGRADRMS= 0.6613238308409991E-05
_OPTSTEP= 1.0000000000000000    
_ORBITAL=  2100.200000000000    
_PI=  3.141592653589793    
_SEIG_MIN= 0.1266311556383738E-01
_SEWPROP=TRUE
_STATUS= 1.0000000000000000    
_SYSTOT= 0.9199999999999999    
_VERSION=  2012001.000000000    
_WALLTOT=  3.490000000000000    
_DATE=02-Sep-15
_LASTORB=RHF
_MACHINE=Linux-2.6.32-573.3.1.el6.x86_64/qc004(x86_64) 64 bit serial version
_OUTPUT=/home/vincpohl/project.orbkit/ch2o/ch2o.xml
_PGROUP=C2v
_TIME=16:46:47
_LIBMOL=/cm/shared/apps/molpro/2012.1.4openmp/molpros_2012_1_Linux_x86_64_i8/lib/
!VIBCNT=  0.000000000000000    
!RGHFCNT=  0.000000000000000    
!SURFREC=  0.000000000000000    
!POLYREC=  0.000000000000000    
!DIPREC=  0.000000000000000    
!VSCFREC=  0.000000000000000    
!VCIREC=  0.000000000000000    
!PVCIREC=  0.000000000000000    
!VMP2REC=  0.000000000000000    
!VMCSCFREC=  0.000000000000000    
!VMRCIREC=  0.000000000000000    
!VIBINFO=  0.000000000000000    
!GAREC=  0.000000000000000    
!SCFORB=  21002.00000000000    
!NEWMOL=  0.000000000000000    
!NEWSYM=  0.000000000000000    
_SLFILES=slscratch
_NGSSTO=  9.000000000000000    
_SIN=SIN
_COS=COS
_TAN=TAN
_ACOS=ACOS
_ASIN=ASIN
_ATAN=ATAN
_COSH=COSH
_SINH=SINH
_TANH=TANH
_ABS=ABS
_MOD=MOD
_ERF=ERF
_REFC=REFC
_ERFC=ERFC
_HYPOT=HYPOT
_J0=J0
_J1=J1
_JN=JN
_GAMMA=GAMMA
_LGAMMA=LGAMMA
_Y0=Y0
_Y1=Y1
_YN=YN
_EXP=EXP
_LOG=LOG
_LOG10=LOG10
_SQRT=SQRT
_INT=INT
_NINT=NINT
_MAX=MAX
_MIN=MIN
_COSMO=  0.000000000000000    
_COSMOIT=  0.000000000000000    
_COSMOES=  0.000000000000000    
_COSMOEDS=  0.000000000000000    
_COSMOEC=  0.000000000000000    
_COSMOEDCORR=  0.000000000000000    
_FEPSI= 1.0000000000000000    
_SL_IsMM=  0.000000000000000    
_SL_NSYM=  4.000000000000000    
_SL_System_BitSw=  0.000000000000000    
_SL_Unique_atoms=  0.000000000000000    
_SL_GRAD=  0.000000000000000    
_SL_MAXUPD_Hess=  5.000000000000000    
_SL_N_PRINT_COD=  5.000000000000000    
_SL_PRINT_CODES=  0.000000000000000    
_SL_BasType=  0.000000000000000    
_SL_Energy_Pred=  0.000000000000000    
_SL_New_Coords=  0.000000000000000    
_SL_Total_Nuclea=  0.000000000000000    
_SL_Highest_Mltp=  0.000000000000000    
_SL_Ref_Geom=  0.000000000000000    
_SL_Symmetry_ope= 1.0000000000000000    
_SL_agrad=  0.000000000000000    
_SL_GrdMax=  0.000000000000000    
_SL_GrdNorm=  0.000000000000000    
_SL_GrdRMS=  0.000000000000000    
!LATTICE=-1.0000000000000000    
!NEWLATTICE=  0.000000000000000    
!LATGRAD_VAR=FALSE
!SEW_LATTICE= 1.0000000000000000    
!LOCAL=  0.000000000000000    
!SAVEDOM=-1.0000000000000000    
!RESTDOM=-1.0000000000000000    
!SAVEDOM_HF=-1.0000000000000000    
!RESTDOM_HF=-1.0000000000000000    
!HESSREC=  0.000000000000000    
!FREQREC=  0.000000000000000    
!NMODREC=  0.000000000000000    
!GTASKS=  0.000000000000000    
!HTASKS=  0.000000000000000    
!THRCHG= 0.1000000000000000    
!DEBUG=-1.0000000000000000    
!CFIT_CPHF=  0.000000000000000    
!RDOMAUX_CPHF=  5.000000000000000    
!THRAO_CPHF= 0.9999999999999999E-11
!THRMO_CPHF= 0.9999999999999999E-11
!THROV_CPHF= 0.1000000000000000E-11
!THRSW_CPHF= 0.1000000000000000E-09
!THRPROD_CPHF= 0.9999999999999999E-11
!THRAOPR_CPHF= 0.1000000000000000E-11
!CFIT_SCFGRD=  0.000000000000000    
!RDOMAUX_SCFGRD=  7.000000000000000    
!THRAO_SCFGRD= 0.9999999999999999E-11
!THRMO_SCFGRD= 0.9999999999999999E-11
!THROV_SCFGRD= 0.1000000000000000E-11
!THRSW_SCFGRD= 0.1000000000000000E-09
!THRPROD_SCFGRD= 0.9999999999999999E-11
!THRAOPR_SCFGRD= 0.1000000000000000E-11
!LOCFIT_SCF=  0.000000000000000    
!LOCFIT_MP2=-1.0000000000000000    
_RIDOM=  0.000000000000000    
!CC2_METHOD=  0.000000000000000    
_BASIS2006=FALSE
_SVDDEL=-1.0000000000000000    
_SVDDELA=-1.0000000000000000    
_SVDDELP=-1.0000000000000000    
_SVDDELF=-1.0000000000000000    
_SVDDELS=-1.0000000000000000    
_SVDDEL_ABS=-1.0000000000000000    
_SVDDELA_ABS=-1.0000000000000000    
_SVDDELP_ABS=-1.0000000000000000    
_SVDDELF_ABS=-1.0000000000000000    
_SVDDELS_ABS=-1.0000000000000000    
_MAXBASIS=  0.000000000000000    
!OPT_CONICAL=  0.000000000000000    
!CLEARSP_JGRID=  0.000000000000000    
_4EXT_NDISKS= 1.0000000000000000    
!ZMP=  0.000000000000000    
_MAXIT_ZMP=  500.0000000000000    
_MAXDIS_ZMP= 100.00000000000000    
_ACCU_ZMP=  14.00000000000000    
_SHIFTA_ZMP=-100.00000000000000    
!EMBEDFLAG= 1.0000000000000000    
!EMBED=FALSE
!EMBED_F12=FALSE
!EMBEDNUC=  0.000000000000000    
_EMBEDENERGY=  0.000000000000000    
_KSPACETIME=  0.000000000000000    
_RSPACETIME=  0.000000000000000    
!EMBED_DFC=FALSE
!NUM_VOIDS=  0.000000000000000    
_IBODY=  0.000000000000000    
_EMBE_TOTAL=  0.000000000000000    
_EMBE_HF=  0.000000000000000    
_EMBE_CORR=  0.000000000000000    
!EDFT=  0.000000000000000    
_IFASTLATGRAD=  0.000000000000000    
_SINDEX=  0.000000000000000    
GEOMTYP=XYZ
GX1=  0.000000000000000    
GY1=  0.000000000000000    
GZ1=-0.5265282279693211    
GX2=  0.000000000000000    
GY2=  0.000000000000000    
GZ2= 0.6555439699033567    
GX3=  0.000000000000000    
GY3=-0.9325070750312017    
GZ3= -1.113370423217018    
GX4=  0.000000000000000    
GY4= 0.9325070750312017    
GZ4= -1.113370423217018    
MD=c2ho.molden
[Atoms] Angs
C     1    6         0.0000000000        0.0000000000       -0.5265282280
O     2    8         0.0000000000        0.0000000000        0.6555439699
H     3    1         0.0000000000       -0.9325070750       -1.1133704232
H     4    1         0.0000000000        0.9325070750       -1.1133704232
[GTO]
  1 0
 s    9  1.00
  0.6665000000D+04  0.6920001793D-03
  0.1000000000D+04  0.5329001381D-02
  0.2280000000D+03  0.2707700701D-01
  0.6471000000D+02  0.1017180264D+00
  0.2106000000D+02  0.2747400712D+00
  0.7495000000D+01  0.4485641162D+00
  0.2797000000D+01  0.2850740738D+00
  0.5215000000D+00  0.1520400394D-01
  0.1596000000D+00 -0.3191000827D-02
 s    9  1.00
  0.6665000000D+04 -0.1460000642D-03
  0.1000000000D+04 -0.1154000508D-02
  0.2280000000D+03 -0.5725002519D-02
  0.6471000000D+02 -0.2331201026D-01
  0.2106000000D+02 -0.6395502813D-01
  0.7495000000D+01 -0.1499810660D+00
  0.2797000000D+01 -0.1272620560D+00
  0.5215000000D+00  0.5445292395D+00
  0.1596000000D+00  0.5804962554D+00
 s    9  1.00
  0.6665000000D+04  0.0000000000D+00
  0.1000000000D+04  0.0000000000D+00
  0.2280000000D+03  0.0000000000D+00
  0.6471000000D+02  0.0000000000D+00
  0.2106000000D+02  0.0000000000D+00
  0.7495000000D+01  0.0000000000D+00
  0.2797000000D+01  0.0000000000D+00
  0.5215000000D+00  0.0000000000D+00
  0.1596000000D+00  0.1000000000D+01
 p    4  1.00
  0.9439000000D+01  0.3810902127D-01
  0.2002000000D+01  0.2094801169D+00
  0.5456000000D+00  0.5085572839D+00
  0.1517000000D+00  0.4688422617D+00
 p    4  1.00
  0.9439000000D+01  0.0000000000D+00
  0.2002000000D+01  0.0000000000D+00
  0.5456000000D+00  0.0000000000D+00
  0.1517000000D+00  0.1000000000D+01
 d    1  1.00
  0.5500000000D+00  0.1000000000D+01
  
  2 0
 s    9  1.00
  0.1172000000D+05  0.7100002503D-03
  0.1759000000D+04  0.5470001928D-02
  0.4008000000D+03  0.2783700981D-01
  0.1137000000D+03  0.1048000369D+00
  0.3703000000D+02  0.2830620998D+00
  0.1327000000D+02  0.4487191582D+00
  0.5025000000D+01  0.2709520955D+00
  0.1013000000D+01  0.1545800545D-01
  0.3023000000D+00 -0.2585000911D-02
 s    9  1.00
  0.1172000000D+05 -0.1600000154D-03
  0.1759000000D+04 -0.1263000121D-02
  0.4008000000D+03 -0.6267000602D-02
  0.1137000000D+03 -0.2571600247D-01
  0.3703000000D+02 -0.7092400682D-01
  0.1327000000D+02 -0.1654110159D+00
  0.5025000000D+01 -0.1169550112D+00
  0.1013000000D+01  0.5573680536D+00
  0.3023000000D+00  0.5727590551D+00
 s    9  1.00
  0.1172000000D+05  0.0000000000D+00
  0.1759000000D+04  0.0000000000D+00
  0.4008000000D+03  0.0000000000D+00
  0.1137000000D+03  0.0000000000D+00
  0.3703000000D+02  0.0000000000D+00
  0.1327000000D+02  0.0000000000D+00
  0.5025000000D+01  0.0000000000D+00
  0.1013000000D+01  0.0000000000D+00
  0.3023000000D+00  0.1000000000D+01
 p    4  1.00
  0.1770000000D+02  0.4301799242D-01
  0.3854000000D+01  0.2289129597D+00
  0.1046000000D+01  0.5087279104D+00
  0.2753000000D+00  0.4605309189D+00
 p    4  1.00
  0.1770000000D+02  0.0000000000D+00
  0.3854000000D+01  0.0000000000D+00
  0.1046000000D+01  0.0000000000D+00
  0.2753000000D+00  0.1000000000D+01
 d    1  1.00
  0.1185000000D+01  0.1000000000D+01
  
  3 0
 s    4  1.00
  0.1301000000D+02  0.1968498999D-01
  0.1962000000D+01  0.1379769298D+00
  0.4446000000D+00  0.4781477569D+00
  0.1220000000D+00  0.5012397451D+00
 s    4  1.00
  0.1301000000D+02  0.0000000000D+00
  0.1962000000D+01  0.0000000000D+00
  0.4446000000D+00  0.0000000000D+00
  0.1220000000D+00  0.1000000000D+01
 p    1  1.00
  0.7270000000D+00  0.1000000000D+01
  
  4 0
 s    4  1.00
  0.1301000000D+02  0.1968498999D-01
  0.1962000000D+01  0.1379769298D+00
  0.4446000000D+00  0.4781477569D+00
  0.1220000000D+00  0.5012397451D+00
 s    4  1.00
  0.1301000000D+02  0.0000000000D+00
  0.1962000000D+01  0.0000000000D+00
  0.4446000000D+00  0.0000000000D+00
  0.1220000000D+00  0.1000000000D+01
 p    1  1.00
  0.7270000000D+00  0.1000000000D+01
 
 
[MO]
 Sym=      1.1
 Ene=     -20.5745
 Spin= Alpha
 Occup=    2.000000
1 0.000169265271064
2 0.000324825588387
3 0.002045640630886
4 0.0
5 0.0
6 -0.000314790417969
7 0.0
8 0.0
9 0.001450957750442
10 0.000154093351248
11 0.000609817560188
12 -0.000763910911436
13 0.0
14 0.0
15 0.0
16 1.00073308807905
17 0.003439036699131
18 -0.004612304837959
19 0.0
20 0.0
21 -0.002705714866208
22 0.0
23 0.0
24 0.002765884464516
25 -0.000288759340802
26 0.000048064763956
27 0.000240694576847
28 0.0
29 0.0
30 0.0
31 -0.000538270427946
32 0.000281267356635
33 0.0
34 0.000048859262496
35 -0.000331419010936
36 -0.000538270427946
37 0.000281267356635
38 0.0
39 -0.000048859262496
40 -0.000331419010936
 Sym=      2.1
 Ene=     -11.3412
 Spin= Alpha
 Occup=    2.000000
1 1.00119197170511
2 0.007236609489941
3 -0.005552321366998
4 0.0
5 0.0
6 0.000857019461493
7 0.0
8 0.0
9 0.000921676792935
10 -0.000948600550678
11 0.000112630850382
12 0.000835969700296
13 0.0
14 0.0
15 0.0
16 -0.000218232942044
17 0.001034062453347
18 -0.002203529748401
19 0.0
20 0.0
21 -0.000680527265441
22 0.0
23 0.0
24 0.001490388875949
25 -0.000005217844136
26 -0.000222765012789
27 0.000227982856925
28 0.0
29 0.0
30 0.0
31 -0.000527596999706
32 0.001585099458454
33 0.0
34 -0.000379174501563
35 -0.000258582701650
36 -0.000527596999706
37 0.001585099458454
38 0.0
39 0.000379174501563
40 -0.000258582701650
 Sym=      3.1
 Ene=      -1.4192
 Spin= Alpha
 Occup=    2.000000
1 -0.016751533840836
2 0.43362435987186
3 -0.17365700680837
4 0.0
5 0.0
6 0.28944139620971
7 0.0
8 0.0
9 -0.12146487066113
10 -0.012481960279416
11 -0.028817220108330
12 0.041299180387746
13 0.0
14 0.0
15 0.0
16 -0.011477955805754
17 0.79992582574537
18 -0.085094595023290
19 0.0
20 0.0
21 -0.20773818993964
22 0.0
23 0.0
24 0.062006897563518
25 -0.009128663602409
26 -0.008643874198835
27 0.017772537801244
28 0.0
29 0.0
30 0.0
31 0.068384306927826
32 -0.035762783462360
33 0.0
34 0.007185510776628
35 0.009688996610830
36 0.068384306927826
37 -0.035762783462360
38 0.0
39 -0.007185510776628
40 0.009688996610830
 Sym=      4.1
 Ene=      -0.8626
 Spin= Alpha
 Occup=    2.000000
1 -0.007280907698346
2 0.68387779292187
3 -0.16702094276074
4 0.0
5 0.0
6 -0.25717921202330
7 0.0
8 0.0
9 0.037374195437597
10 -0.001618135447827
11 0.009576297510422
12 -0.007958162062595
13 0.0
14 0.0
15 0.0
16 -0.000644948710904
17 -0.37801942286501
18 -0.025546873815213
19 0.0
20 0.0
21 -0.22437995917251
22 0.0
23 0.0
24 0.006964796822226
25 -0.003198759568421
26 -0.005137966341977
27 0.008336725910398
28 0.0
29 0.0
30 0.0
31 0.40364451919191
32 -0.17104789765527
33 0.0
34 0.025401829018795
35 0.011616341102490
36 0.40364451919191
37 -0.17104789765527
38 0.0
39 -0.025401829018795
40 0.011616341102490
 Sym=      1.3
 Ene=      -0.6933
 Spin= Alpha
 Occup=    2.000000
1 0.0
2 0.0
3 0.0
4 0.0
5 0.59289675281218
6 0.0
7 0.0
8 -0.15082564683928
9 0.0
10 0.0
11 0.0
12 0.0
13 0.0
14 0.0
15 0.012697565734453
16 0.0
17 0.0
18 0.0
19 0.0
20 0.51267656082827
21 0.0
22 0.0
23 -0.027686331848600
24 0.0
25 0.0
26 0.0
27 0.0
28 0.0
29 0.0
30 -0.021026352334951
31 -0.40908022407024
32 0.13628460430653
33 0.0
34 -0.015805541225758
35 -0.010407382287904
36 0.40908022407024
37 -0.13628460430653
38 0.0
39 -0.015805541225758
40 0.010407382287904
 Sym=      5.1
 Ene=      -0.6529
 Spin= Alpha
 Occup=    2.000000
1 -0.011574293013974
2 -0.12400973772891
3 0.14143616800592
4 0.0
5 0.0
6 -0.57017499510964
7 0.0
8 0.0
9 0.22598503105468
10 0.004447423782411
11 0.022795025431956
12 -0.027242449214367
13 0.0
14 0.0
15 0.0
16 0.000496899064250
17 0.29368185810071
18 0.12240312833192
19 0.0
20 0.0
21 0.73234697555541
22 0.0
23 0.0
24 -0.043920158560106
25 0.012555521358785
26 0.014313198122260
27 -0.026868719481045
28 0.0
29 0.0
30 0.0
31 0.21114212706346
32 -0.050728423795796
33 0.0
34 0.012260533582337
35 -0.003731007813948
36 0.21114212706346
37 -0.050728423795796
38 0.0
39 -0.012260533582337
40 -0.003731007813948
 Sym=      1.2
 Ene=      -0.5394
 Spin= Alpha
 Occup=    2.000000
1 0.0
2 0.0
3 0.0
4 0.51094599620453
5 0.0
6 0.0
7 -0.032627372775479
8 0.0
9 0.0
10 0.0
11 0.0
12 0.0
13 0.0
14 0.056235938683208
15 0.0
16 0.0
17 0.0
18 0.0
19 0.70828003855346
20 0.0
21 0.0
22 0.009797127389059
23 0.0
24 0.0
25 0.0
26 0.0
27 0.0
28 0.0
29 -0.030933695546160
30 0.0
31 0.0
32 0.0
33 0.009221728270463
34 0.0
35 0.0
36 0.0
37 0.0
38 0.009221728270463
39 0.0
40 0.0
 Sym=      2.3
 Ene=      -0.4322
 Spin= Alpha
 Occup=    2.000000
1 0.0
2 0.0
3 0.0
4 0.0
5 -0.29842692608794
6 0.0
7 0.0
8 0.094899379940618
9 0.0
10 0.0
11 0.0
12 0.0
13 0.0
14 0.0
15 0.074168755376479
16 0.0
17 0.0
18 0.0
19 0.0
20 0.77941654971034
21 0.0
22 0.0
23 0.056501310359587
24 0.0
25 0.0
26 0.0
27 0.0
28 0.0
29 0.0
30 -0.010005446151234
31 0.44078242480850
32 -0.038534559444798
33 0.0
34 0.005633361879129
35 0.008771068430168
36 -0.44078242480850
37 0.038534559444798
38 0.0
39 0.005633361879129
40 -0.008771068430168
 Sym=      2.2
 Ene=       0.1431
 Spin= Alpha
 Occup=    0.000000
1 0.0
2 0.0
3 0.0
4 0.59286553555535
5 0.0
6 0.0
7 0.44417418690525
8 0.0
9 0.0
10 0.0
11 0.0
12 0.0
13 0.0
14 -0.039706193150939
15 0.0
16 0.0
17 0.0
18 0.0
19 -0.54693879689198
20 0.0
21 0.0
22 -0.27859146430220
23 0.0
24 0.0
25 0.0
26 0.0
27 0.0
28 0.0
29 -0.004199296216378
30 0.0
31 0.0
32 0.0
33 0.023673783975900
34 0.0
35 0.0
36 0.0
37 0.0
38 0.023673783975900
39 0.0
40 0.0
 Sym=      6.1
 Ene=       0.1910
 Spin= Alpha
 Occup=    0.000000
1 0.060303073770690
2 -0.21288830726601
3 -1.83863401919936
4 0.0
5 0.0
6 0.28035738874898
7 0.0
8 0.0
9 0.44751732816114
10 0.020819744812865
11 -0.015130018625985
12 -0.005689726186879
13 0.0
14 0.0
15 0.0
16 0.001041810553009
17 -0.000168158286241
18 -0.015910072947900
19 0.0
20 0.0
21 -0.083806095531452
22 0.0
23 0.0
24 -0.076633050131018
25 -0.002900801853472
26 0.002773668761044
27 0.000127133092429
28 0.0
29 0.0
30 0.0
31 0.067124125300559
32 1.34515565634313
33 0.0
34 0.015619393677022
35 0.011377195094949
36 0.067124125300559
37 1.34515565634313
38 0.0
39 -0.015619393677022
40 0.011377195094949
 Sym=      3.3
 Ene=       0.2605
 Spin= Alpha
 Occup=    0.000000
1 0.0
2 0.0
3 0.0
4 0.0
5 0.53423692569072
6 0.0
7 0.0
8 1.17911060747300
9 0.0
10 0.0
11 0.0
12 0.0
13 0.0
14 0.0
15 -0.026844258744734
16 0.0
17 0.0
18 0.0
19 0.0
20 -0.14512079223308
21 0.0
22 0.0
23 -0.24737516323941
24 0.0
25 0.0
26 0.0
27 0.0
28 0.0
29 0.0
30 -0.009932872009950
31 -0.099440088304343
32 1.94276406450549
33 0.0
34 0.013828898993942
35 0.013548678092861
36 0.099440088304343
37 -1.94276406450549
38 0.0
39 0.013828898993942
40 -0.013548678092861
 Sym=      7.1
 Ene=       0.3623
 Spin= Alpha
 Occup=    0.000000
1 -0.037732625307505
2 0.011801989252272
3 1.28553471125085
4 0.0
5 0.0
6 0.050529836462775
7 0.0
8 0.0
9 1.73457468143625
10 -0.016585536022903
11 -0.012052980373429
12 0.028638516396332
13 0.0
14 0.0
15 0.0
16 0.075457276599732
17 -0.10253909286239
18 -1.70529409404609
19 0.0
20 0.0
21 0.16735683940713
22 0.0
23 0.0
24 0.51782611488617
25 0.015822296394764
26 0.015489934337939
27 -0.031312230732703
28 0.0
29 0.0
30 0.0
31 0.019119709675178
32 0.12070371956067
33 0.0
34 -0.013788075641856
35 0.014173670773209
36 0.019119709675178
37 0.12070371956067
38 0.0
39 0.013788075641856
40 0.014173670773209
 Sym=      3.2
 Ene=       0.6678
 Spin= Alpha
 Occup=    0.000000
1 0.0
2 0.0
3 0.0
4 -1.54480116174573
5 0.0
6 0.0
7 1.78606927701077
8 0.0
9 0.0
10 0.0
11 0.0
12 0.0
13 0.0
14 -0.030062174309005
15 0.0
16 0.0
17 0.0
18 0.0
19 0.026222264041883
20 0.0
21 0.0
22 -0.075981488495043
23 0.0
24 0.0
25 0.0
26 0.0
27 0.0
28 0.0
29 0.042046016114476
30 0.0
31 0.0
32 0.0
33 -0.046854918206647
34 0.0
35 0.0
36 0.0
37 0.0
38 -0.046854918206647
39 0.0
40 0.0
 Sym=      8.1
 Ene=       0.6728
 Spin= Alpha
 Occup=    0.000000
1 -0.13400176502456
2 -0.29184635679319
3 0.96080701404017
4 0.0
5 0.0
6 -0.050264010249043
7 0.0
8 0.0
9 -0.29411003599059
10 0.23200572139570
11 -0.23596950066072
12 0.003963779265019
13 0.0
14 0.0
15 0.0
16 -0.023314933199153
17 -0.19121279640119
18 0.031679696384695
19 0.0
20 0.0
21 0.056596567728039
22 0.0
23 0.0
24 0.096414314384597
25 0.011842327598952
26 -0.006928795962873
27 -0.004913531636079
28 0.0
29 0.0
30 0.0
31 -1.37399801734269
32 0.94124008029709
33 0.0
34 0.12189734219902
35 0.011471640371057
36 -1.37399801734269
37 0.94124008029709
38 0.0
39 -0.12189734219902
40 0.011471640371057
 Sym=      4.3
 Ene=       0.7402
 Spin= Alpha
 Occup=    0.000000
1 0.0
2 0.0
3 0.0
4 0.0
5 -0.50914413057183
6 0.0
7 0.0
8 2.44831781083704
9 0.0
10 0.0
11 0.0
12 0.0
13 0.0
14 0.0
15 0.060141536486278
16 0.0
17 0.0
18 0.0
19 0.0
20 -0.45201439928468
21 0.0
22 0.0
23 -0.17110489509180
24 0.0
25 0.0
26 0.0
27 0.0
28 0.0
29 0.0
30 -0.003053219951151
31 1.15189729539864
32 0.17041891292375
33 0.0
34 0.052151999883351
35 -0.046372723982022
36 -1.15189729539864
37 -0.17041891292375
38 0.0
39 0.052151999883351
40 0.046372723982022
 Sym=      5.3
 Ene=       0.8192
 Spin= Alpha
 Occup=    0.000000
1 0.0
2 0.0
3 0.0
4 0.0
5 -1.20331346582589
6 0.0
7 0.0
8 1.99825213138161
9 0.0
10 0.0
11 0.0
12 0.0
13 0.0
14 0.0
15 -0.36643137967094
16 0.0
17 0.0
18 0.0
19 0.0
20 0.11364871908672
21 0.0
22 0.0
23 0.002595285574353
24 0.0
25 0.0
26 0.0
27 0.0
28 0.0
29 0.0
30 0.030530302921034
31 -0.67464939859679
32 1.73038555294222
33 0.0
34 0.17193142004511
35 0.16451175831876
36 0.67464939859679
37 -1.73038555294222
38 0.0
39 0.17193142004511
40 -0.16451175831876
 Sym=      9.1
 Ene=       0.9175
 Spin= Alpha
 Occup=    0.000000
1 0.22376991176911
2 0.88220513778789
3 -2.83995920884348
4 0.0
5 0.0
6 -1.46192232384719
7 0.0
8 0.0
9 1.84064674311066
10 -0.057205394541098
11 -0.19830291835896
12 0.25550831290006
13 0.0
14 0.0
15 0.0
16 0.018654365668048
17 0.30586601604365
18 -0.12023713517810
19 0.0
20 0.0
21 -0.29360628046198
22 0.0
23 0.0
24 -0.42301998824078
25 0.029652882094464
26 0.040165703911520
27 -0.069818586005984
28 0.0
29 0.0
30 0.0
31 0.073137999385054
32 0.88768840003268
33 0.0
34 0.16989537774240
35 0.035012751352274
36 0.073137999385054
37 0.88768840003268
38 0.0
39 -0.16989537774240
40 0.035012751352274
 Sym=     10.1
 Ene=       0.9825
 Spin= Alpha
 Occup=    0.000000
1 -0.61006665932393
2 -2.97650791472028
3 4.86684724870554
4 0.0
5 0.0
6 -0.20062732672859
7 0.0
8 0.0
9 0.14557628831887
10 -0.22288443361192
11 -0.11835996858234
12 0.34124440219426
13 0.0
14 0.0
15 0.0
16 0.032398738929059
17 0.18730822264728
18 -0.92148988615064
19 0.0
20 0.0
21 -0.60509523564125
22 0.0
23 0.0
24 0.63430095839660
25 0.051048413939695
26 0.038061869596227
27 -0.089110283535922
28 0.0
29 0.0
30 0.0
31 0.055809120325030
32 -0.90343164735407
33 0.0
34 -0.087999648445953
35 -0.16044995519188
36 0.055809120325030
37 -0.90343164735407
38 0.0
39 0.087999648445953
40 -0.16044995519188
 Sym=     11.1
 Ene=       1.1029
 Spin= Alpha
 Occup=    0.000000
1 0.47760452735562
2 1.99662804362173
3 -1.22882554012306
4 0.0
5 0.0
6 0.60457993960697
7 0.0
8 0.0
9 0.25699720823338
10 -0.19277677622903
11 -0.16959787934946
12 0.36237465557848
13 0.0
14 0.0
15 0.0
16 -0.021639242035098
17 -0.35545734458850
18 -0.66875472770777
19 0.0
20 0.0
21 -0.75824352472254
22 0.0
23 0.0
24 1.87319912699596
25 -0.014730574158327
26 -0.009506006250984
27 0.024236580409311
28 0.0
29 0.0
30 0.0
31 0.034512779234198
32 0.22338364184851
33 0.0
34 0.058309450658468
35 -0.059165575898732
36 0.034512779234198
37 0.22338364184851
38 0.0
39 -0.058309450658468
40 -0.059165575898732
 Sym=      1.4
 Ene=       1.1579
 Spin= Alpha
 Occup=    0.000000
1 0.0
2 0.0
3 0.0
4 0.0
5 0.0
6 0.0
7 0.0
8 0.0
9 0.0
10 0.0
11 0.0
12 0.0
13 0.65727426930248
14 0.0
15 0.0
16 0.0
17 0.0
18 0.0
19 0.0
20 0.0
21 0.0
22 0.0
23 0.0
24 0.0
25 0.0
26 0.0
27 0.0
28 0.042092965382866
29 0.0
30 0.0
31 0.0
32 0.0
33 -0.33859874241541
34 0.0
35 0.0
36 0.0
37 0.0
38 0.33859874241541
39 0.0
40 0.0
 Sym=      4.2
 Ene=       1.2900
 Spin= Alpha
 Occup=    0.000000
1 0.0
2 0.0
3 0.0
4 0.099992096714394
5 0.0
6 0.0
7 -0.49330376377868
8 0.0
9 0.0
10 0.0
11 0.0
12 0.0
13 0.0
14 -0.23175478872127
15 0.0
16 0.0
17 0.0
18 0.0
19 -1.37873179452090
20 0.0
21 0.0
22 1.91784881246638
23 0.0
24 0.0
25 0.0
26 0.0
27 0.0
28 0.0
29 0.032083070326380
30 0.0
31 0.0
32 0.0
33 -0.080118215288294
34 0.0
35 0.0
36 0.0
37 0.0
38 -0.080118215288294
39 0.0
40 0.0
 Sym=      6.3
 Ene=       1.3236
 Spin= Alpha
 Occup=    0.000000
1 0.0
2 0.0
3 0.0
4 0.0
5 0.34606054621844
6 0.0
7 0.0
8 -1.43310821011651
9 0.0
10 0.0
11 0.0
12 0.0
13 0.0
14 0.0
15 -0.45484601570148
16 0.0
17 0.0
18 0.0
19 0.0
20 -1.18360708508553
21 0.0
22 0.0
23 2.03430968861068
24 0.0
25 0.0
26 0.0
27 0.0
28 0.0
29 0.0
30 0.045330082486866
31 0.12068249389518
32 -0.69323807284527
33 0.0
34 -0.026905203739887
35 0.032746746793285
36 -0.12068249389518
37 0.69323807284527
38 0.0
39 -0.026905203739887
40 -0.032746746793285
 Sym=      5.2
 Ene=       1.4219
 Spin= Alpha
 Occup=    0.000000
1 0.0
2 0.0
3 0.0
4 0.075291965039396
5 0.0
6 0.0
7 0.39577614397843
8 0.0
9 0.0
10 0.0
11 0.0
12 0.0
13 0.0
14 0.84361204403052
15 0.0
16 0.0
17 0.0
18 0.0
19 -0.29931179071819
20 0.0
21 0.0
22 -0.28910534633994
23 0.0
24 0.0
25 0.0
26 0.0
27 0.0
28 0.0
29 -0.081177997606341
30 0.0
31 0.0
32 0.0
33 -0.32341380167804
34 0.0
35 0.0
36 0.0
37 0.0
38 -0.32341380167804
39 0.0
40 0.0
 Sym=     12.1
 Ene=       1.6764
 Spin= Alpha
 Occup=    0.000000
1 0.26190063779859
2 1.02018054531103
3 -1.85372831054125
4 0.0
5 0.0
6 0.026245165951280
7 0.0
8 0.0
9 0.78379350628791
10 0.82460882053783
11 -0.74824693314934
12 -0.076361887388489
13 0.0
14 0.0
15 0.0
16 0.076714489436267
17 0.31765589543062
18 -0.50379250262178
19 0.0
20 0.0
21 0.16709940790022
22 0.0
23 0.0
24 -0.20718574112182
25 0.084231259845862
26 -0.10651021533042
27 0.022278955484561
28 0.0
29 0.0
30 0.0
31 1.16794958374803
32 -0.34733393543255
33 0.0
34 -0.011426594525311
35 -0.27765589531889
36 1.16794958374803
37 -0.34733393543255
38 0.0
39 0.011426594525311
40 -0.27765589531889
 Sym=      7.3
 Ene=       1.6968
 Spin= Alpha
 Occup=    0.000000
1 0.0
2 0.0
3 0.0
4 0.0
5 0.12556099277368
6 0.0
7 0.0
8 -1.45944974241574
9 0.0
10 0.0
11 0.0
12 0.0
13 0.0
14 0.0
15 0.13988416566678
16 0.0
17 0.0
18 0.0
19 0.0
20 -0.32263870679715
21 0.0
22 0.0
23 0.72150840813863
24 0.0
25 0.0
26 0.0
27 0.0
28 0.0
29 0.0
30 0.026256605382234
31 -0.77147741398111
32 -0.074467125982633
33 0.0
34 0.50668886923013
35 -0.48787419883811
36 0.77147741398111
37 0.074467125982633
38 0.0
39 0.50668886923013
40 0.48787419883811
 Sym=     13.1
 Ene=       1.8633
 Spin= Alpha
 Occup=    0.000000
1 0.061348031009513
2 0.031690309933937
3 0.36475369535122
4 0.0
5 0.0
6 -0.33825812322168
7 0.0
8 0.0
9 -0.11416349564940
10 0.44006578005547
11 -0.31917301562233
12 -0.12089276443314
13 0.0
14 0.0
15 0.0
16 0.33731147867796
17 1.60329913657376
18 -1.57991171403396
19 0.0
20 0.0
21 -0.72757588699330
22 0.0
23 0.0
24 0.89849125325690
25 0.032187854206165
26 -0.055156585458369
27 0.022968731252204
28 0.0
29 0.0
30 0.0
31 0.031256483623084
32 -0.11835129751791
33 0.0
34 -0.31064217037533
35 0.52693460831822
36 0.031256483623084
37 -0.11835129751791
38 0.0
39 0.31064217037533
40 0.52693460831822
 Sym=      6.2
 Ene=       1.9566
 Spin= Alpha
 Occup=    0.000000
1 0.0
2 0.0
3 0.0
4 -0.33108612467626
5 0.0
6 0.0
7 -0.17863997506769
8 0.0
9 0.0
10 0.0
11 0.0
12 0.0
13 0.0
14 0.70048215348236
15 0.0
16 0.0
17 0.0
18 0.0
19 -0.38612775415470
20 0.0
21 0.0
22 0.29368797197830
23 0.0
24 0.0
25 0.0
26 0.0
27 0.0
28 0.0
29 -0.071983559504751
30 0.0
31 0.0
32 0.0
33 0.76048863066176
34 0.0
35 0.0
36 0.0
37 0.0
38 0.76048863066176
39 0.0
40 0.0
 Sym=      8.3
 Ene=       1.9727
 Spin= Alpha
 Occup=    0.000000
1 0.0
2 0.0
3 0.0
4 0.0
5 0.31021931011671
6 0.0
7 0.0
8 -0.33389923055473
9 0.0
10 0.0
11 0.0
12 0.0
13 0.0
14 0.0
15 0.79791843921571
16 0.0
17 0.0
18 0.0
19 0.0
20 -0.57178434264300
21 0.0
22 0.0
23 0.40177300233904
24 0.0
25 0.0
26 0.0
27 0.0
28 0.0
29 0.0
30 -0.18793361310610
31 -0.71783279545552
32 0.59750716455611
33 0.0
34 0.094632246174976
35 0.49045426572677
36 0.71783279545552
37 -0.59750716455611
38 0.0
39 0.094632246174976
40 -0.49045426572677
 Sym=     14.1
 Ene=       1.9824
 Spin= Alpha
 Occup=    0.000000
1 -0.031123142710257
2 -0.22885373659075
3 -1.81002674317335
4 0.0
5 0.0
6 -0.93718085606124
7 0.0
8 0.0
9 -0.85297825441516
10 0.50020008733745
11 0.36105016616076
12 -0.86125025349820
13 0.0
14 0.0
15 0.0
16 -0.60595070481967
17 -2.56843470828856
18 5.11444610363603
19 0.0
20 0.0
21 -0.78371213167448
22 0.0
23 0.0
24 -0.43238341881703
25 0.071622231631782
26 0.037318639355929
27 -0.10894087098771
28 0.0
29 0.0
30 0.0
31 0.095478497109988
32 -0.065362683446813
33 0.0
34 -0.065303301393164
35 -0.021744738556818
36 0.095478497109988
37 -0.065362683446813
38 0.0
39 0.065303301393164
40 -0.021744738556818
 Sym=      2.4
 Ene=       2.0014
 Spin= Alpha
 Occup=    0.000000
1 0.0
2 0.0
3 0.0
4 0.0
5 0.0
6 0.0
7 0.0
8 0.0
9 0.0